     192
 i =       18, E =     -6864.5936732285
 Zn        -0.3092940091        0.0000009038        0.3739795110
 Zn         2.7467433915        5.7443239964        1.8106554725
 Zn         2.7463604643        1.9258250853        1.8130013760
 Zn         0.0329745645       -0.0004743965        3.8335383903
 Zn         0.0344736718        0.0004191107        7.6483902791
 Zn         0.0373900672        0.0009846523       15.3278408459
 Zn        -0.3112148900        7.6508943555        0.3690328603
 Zn         5.4410009458       11.4653121767        3.8269996604
 Zn         5.4512473891        3.8362322486       19.2361554388
 Zn         5.4409848808        3.8364130246        3.8269672875
 Zn         5.4512316787       11.4656555226       19.2361362225
 Zn         2.7385086424        5.7445801359        9.5638610302
 Zn         2.7362545287        5.7446497624       17.2190301369
 Zn         2.7463299922       13.3759276994        1.8129396637
 Zn         8.1514012977        1.9272059209        5.7202148982
 Zn         7.8043559699        9.5575526574       20.6786940636
 Zn         8.1507483397        9.5570925378        5.7197158151
 Zn         7.8053596448        1.9260101996       20.6758849587
 Zn         2.7388910514        1.9266115770        9.5639649002
 Zn         2.7365813975        1.9268401550       17.2169261904
 Zn         2.7467435396        9.5574611299        1.8106560133
 Zn         8.1514069565       13.3745804626        5.7203569343
 Zn         7.8043621409        5.7442516310       20.6787072195
 Zn         8.1507466660        5.7447027990        5.7197043203
 Zn         7.8053895746       13.3758055144       20.6757975438
 Zn         0.0351816343        0.0011027332       11.4854471124
 Zn         0.0408602683        0.0004152483       19.2328168568
 Zn         0.0313163754        7.6508892432        3.8258589328
 Zn         5.4420986229       11.4656186142        7.6481616355
 Zn         5.0989946874        3.8356778890        0.3697084552
 Zn         5.4421257854        3.8362615916        7.6481365254
 Zn         5.0989939458       11.4660976607        0.3697084460
 Zn         0.0325789150        7.6509110910        7.6478527702
 Zn         0.0356611526        7.6509268079       15.3288987805
 Zn         2.7389660560       13.3752489603        9.5640405793
 Zn         2.7366247960       13.3750232075       17.2168367942
 Zn         2.7385080993        9.5572452919        9.5638641126
 Zn         2.7362553659        9.5571752801       17.2190206691
 Zn         0.0334649136        7.6509276257       11.4855687542
 Zn         0.0413555020        7.6509141512       19.2370000960
 Zn         5.1007053178       -0.0000353602        0.3739739059
 Zn         0.0309857462        3.8364158281        3.8269695604
 Zn         0.0412283374       11.4656529412       19.2361369234
 Zn         0.0310053131       11.4653097633        3.8270010076
 Zn         0.0412500802        3.8362317274       19.2361520151
 Zn         8.1567443517        5.7443242147        1.8106558477
 Zn         2.7407474455        9.5570917501        5.7197160441
 Zn         2.3953609699        1.9260116777       20.6758801567
 Zn         2.7414032633        1.9272081563        5.7202120584
 Zn         2.3943586503        9.5575528502       20.6786941459
 Zn         8.1563544851        1.9258301254        1.8129985264
 Zn         2.7407457014        5.7447027838        5.7197041614
 Zn         2.3953862101       13.3758021045       20.6758004757
 Zn         2.7414167102       13.3745775233        5.7203576597
 Zn         2.3943626922        5.7442505821       20.6787098049
 Zn         5.4429737128       -0.0004933398        3.8335141142
 Zn         0.0321240578        3.8362536707        7.6481388554
 Zn        -0.3110030622       11.4661023016        0.3697051772
 Zn         0.0320995777       11.4656119347        7.6481614761
 Zn        -0.3110037521        3.8356815144        0.3697108609
 Zn         5.4444725834        0.0005205816        7.6483861548
 Zn         5.4474005900        0.0004808023       15.3278373531
 Zn         5.0987843469        7.6508930391        0.3690319788
 Zn         8.1485085200        5.7445807025        9.5638606211
 Zn         8.1462562838        5.7446499886       17.2190365210
 Zn         8.1563341137       13.3759262981        1.8129381754
 Zn         8.1488747576        1.9266094342        9.5639512109
 Zn         8.1465497794        1.9268348149       17.2169821310
 Zn         8.1567448005        9.5574604181        1.8106575277
 Zn         5.4451843527        0.0008163509       11.4854441287
 Zn         5.4508598668        0.0004422415       19.2328156120
 Zn         5.4413159268        7.6508883747        3.8258607683
 Zn         5.4425793216        7.6509130289        7.6478518349
 Zn         5.4456613849        7.6509201403       15.3289003927
 Zn         0.0329770958       11.4656925654       11.4856088263
 Zn         0.0330211429        3.8363161895       11.4856132719
 Zn         8.1489810127       13.3752482276        9.5640579226
 Zn         8.1466514489       13.3750275755       17.2167707215
 Zn         2.7380504114        1.9266187748       13.4008034570
 Zn         2.7373476507        9.5573099991       13.4007547735
 Zn         8.1485082006        9.5572458519        9.5638660393
 Zn         8.1462566609        9.5571750260       17.2190194648
 Zn         2.7380930624       13.3752481431       13.4007549661
 Zn         2.7373522979        5.7445249938       13.4007539351
 Zn         5.4434639717        7.6509245308       11.4855708463
 Zn         5.4513564528        7.6509143068       19.2370004983
 Zn         0.0351896178       11.4656098587       15.3287268163
 Zn         0.0352332017        3.8363679583       15.3287390827
 Zn         5.4430135533        3.8362878487       11.4856099414
 Zn         5.4429874572       11.4656640712       11.4856111471
 Zn         8.1473482485        9.5573097408       13.4007529829
 Zn         8.1480056415        1.9266121311       13.4007986525
 Zn         8.1473522198        5.7445243282       13.4007541504
 Zn         8.1481403313       13.3752399765       13.4007556719
 Zn         5.4452201909        3.8363343797       15.3287351688
 Zn         5.4452044979       11.4655654676       15.3287296394
  S         1.3949296097       -0.0000362432        1.9111647717
  S         1.3141355704        0.0000318410       21.1799418009
  S         9.4227140113       13.3846589072       -0.1382455944
  S         9.4227011161        1.9171217369       -0.1382352396
  S         4.0723409589        5.7433817368        3.7880709610
  S         4.0030910221        5.7426753673       -0.1454480804
  S         1.3883560120        3.8343156552        1.9083513903
  S         1.3863707045        7.6508924254        1.9074034394
  S         4.0784502492        1.9184030367        3.7898963995
  S         4.0127112825        1.9171074266       -0.1382302244
  S         1.3910594152       -0.0000024639        5.7361785676
  S         9.4882510589       13.3830707632        3.7899006807
  S         9.4884453957        1.9184108883        3.7898939580
  S         1.3877128601        0.0001141448        9.5669225179
  S         1.3874614808        0.0001531679       13.4052696158
  S         9.4130907743        5.7426787061       -0.1454482840
  S         9.4130869330        9.5591090505       -0.1454488388
  S         6.7917503524       11.4672395995        5.7340405949
  S         4.0913985427        5.7433048553       19.1391651647
  S         6.7790836560        3.8345909204       17.2587745284
  S         4.0723352229        9.5583744241        3.7880738577
  S         6.7917460735        3.8345541696        5.7340262966
  S         4.0914116279        9.5585386928       19.1391554447
  S         6.7791234919       11.4672772918       17.2587457625
  S         4.0836977501        5.7434180842       11.4824588755
  S         4.0859295840        5.7433994097       15.3138664037
  S         1.3883359000       11.4674508492        1.9083596179
  S         9.4988257912        1.9187217671        7.6435622234
  S         6.7107801690       11.4684078095       21.1918714758
  S         9.5014070625        9.5585346055       19.1391604529
  S         6.8010522730        0.0000013137        5.7361700263
  S         9.4930546857        9.5584626341        7.6430754225
  S         6.7241335152        0.0000324231       21.1799385461
  S         9.5070728833        1.9195138266       19.1373505974
  S         4.0892369980        1.9188702182       11.4825183903
  S         4.0919503098        1.9187953551       15.3131769870
  S         9.4989839194       13.3833663062        7.6435828052
  S         6.7078451933        7.6509009576       21.1939461444
  S         9.5014005434        5.7433010917       19.1391651573
  S         9.4930476847        5.7433695314        7.6430699118
  S         6.7899651305        7.6508953196        5.7333382232
  S         9.5071889171       13.3825859678       19.1373103522
  S         1.3771272882        0.0001070338       17.2565797036
  S         9.4823407308        5.7433828751        3.7880709319
  S         9.4823351124        9.5583747828        3.7880738462
  S         6.7899757779       11.4674131522        9.5668462262
  S         6.7107597054        3.8334153985       21.1918928468
  S         4.0830570768        9.5584673072        7.6430747812
  S         6.7899276627        3.8344446596        9.5668351863
  S         4.0030853246        9.5591082869       -0.1454491449
  S         4.0830475451        5.7433739786        7.6430702698
  S         1.3781148950        7.6509106937        9.5666641860
  S         1.3778131526        7.6509111265       13.4059222656
  S         9.4959287280        5.7434154438       15.3138663352
  S         9.4959566882        9.5584931676       15.3138597505
  S         4.0895325242       13.3835041438       11.4825270084
  S         4.0921185709       13.3833560258       15.3131388512
  S         1.3691139279       11.4672686444       17.2587515983
  S         1.3799727136       11.4674108457        9.5668436849
  S         4.0837171550        9.5584665614       11.4824578614
  S         4.0859531580        9.5584694796       15.3138614261
  S         1.3670782871        7.6509071752       17.2595271752
  S         9.4937205186        9.5584792339       11.4824564543
  S         9.4936955380        5.7434319941       11.4824597716
  S         6.8049335911       -0.0000400925        1.9111536525
  S         4.0127009688       13.3846452704       -0.1382470094
  S         1.3817456921        3.8345536635        5.7340270062
  S         1.3817535817       11.4672395374        5.7340435406
  S         1.3690909346        3.8345858100       17.2587702437
  S         6.7983526928        3.8343174727        1.9083495625
  S         6.7963712790        7.6508927530        1.9074020338
  S         4.0970698976        1.9195264290       19.1373447901
  S         4.0888100552        1.9187563635        7.6435600662
  S         1.3007809345       11.4684051256       21.1918707508
  S         1.3799645162        7.6508951939        5.7333387302
  S         4.0971956273       13.3825932057       19.1373259092
  S         4.0889992570       13.3834021347        7.6435863625
  S         1.2978457620        7.6509018587       21.1939460915
  S         4.0782517563       13.3830627115        3.7898966421
  S         1.3799299997        3.8344407448        9.5668419225
  S         1.3007564148        3.8334151317       21.1918888863
  S         6.7977109295        0.0000994325        9.5669202385
  S         6.7974633894        0.0000979983       13.4052648047
  S         6.7983344952       11.4674520670        1.9083580329
  S         9.4991768810        1.9189695944       11.4825269438
  S         9.5018440478        1.9189571932       15.3131868385
  S         6.7871153352        0.0000718534       17.2565731473
  S         6.7881135009        7.6509116845        9.5666655289
  S         6.7878139907        7.6509102574       13.4059239363
  S         1.3795724937       11.4674710129       13.4058145236
  S         1.3795491441        3.8343890629       13.4058230187
  S         9.4995941223       13.3836000187       11.4825222721
  S         9.5022169112       13.3835226812       15.3131258748
  S         6.7770795914        7.6509078167       17.2595280042
  S         6.7895440720        3.8343959130       13.4058165758
  S         6.7895839877       11.4674792186       13.4058188812
