     216
 i =        2, E =     -7723.0551330479
 Zn         0.0336036985        0.0267731941       -0.0337922580
 Zn         0.0335367560        2.6789799642        2.6709836552
 Zn         2.7386901806       -0.0255651996        2.6719539151
 Zn         2.7387153816        2.7318166445       -0.0337792172
  S         1.4023141124        1.3531426262        1.3187542665
  S         1.3872289802        4.0368672446        4.0221564211
  S         4.0922221654        1.3321353902        4.0249683058
  S         4.1073949124        4.0583869786        1.3185759693
 Zn         0.0330592853       -0.0282240954        5.3786538894
 Zn         0.0363360769        2.7274036354        8.0821309852
 Zn         2.7392409361        0.0196765833        8.0813275086
 Zn         2.7389954463        2.6789075245        5.3763497825
  S         1.3732764705        1.3502680075        6.7290336330
  S         1.3840400997        4.0811446936        9.4339295756
  S         4.0880204682        1.3750553699        9.4329120011
  S         4.0772191242        4.0571819955        6.7280357610
 Zn         0.0348230661        0.0277228846       10.7838361120
 Zn         0.0339836312        2.7348739898       13.4912919771
 Zn         2.7388631086        0.0302603435       13.4904462655
 Zn         2.7392389769        2.7347746137       10.7860802879
  S         1.3856608550        1.3795632286       12.1373338865
  S         1.3880549516        4.0820829902       14.8438323463
  S         4.0930788879        1.3772342745       14.8432322790
  S         4.0909564152        4.0856947046       12.1388463061
 Zn         0.0337516204        5.4370864962       -0.0337942316
 Zn         0.0336677707        8.0896739227        2.6704741003
 Zn         2.7387749387        5.3845569493        2.6704406228
 Zn         2.7387305255        8.1424066912       -0.0337713243
  S         1.4022953161        6.7638997652        1.3182590645
  S         1.3868516691        9.4468764080        4.0222118485
  S         4.0920905941        6.7424064465        4.0218963983
  S         4.1073136013        9.4692683253        1.3185171868
 Zn         0.0337896202        5.3829387196        5.3727424377
 Zn         0.0317748414        8.0942778579        8.0820512614
 Zn         2.7410077514        5.4327788042        8.0820548605
 Zn         2.7387486510        8.0882387054        5.3727603923
  S         1.3774001674        6.7520210319        6.7221716821
  S         1.3706401188        9.4704934747        9.4338661341
  S         4.0878974102        6.7849591622        9.4344719169
  S         4.0821444273        9.4567866871        6.7224653731
 Zn         0.0340759925        5.4389696167       10.7879047036
 Zn         0.0336930285        8.1454714966       13.4916466415
 Zn         2.7388303982        5.4403796636       13.4916772674
 Zn         2.7385685582        8.1441818596       10.7878271994
  S         1.3855360422        6.7892731700       12.1400941850
  S         1.3878727389        9.4927993976       14.8438813371
  S         4.0929954248        6.7875650117       14.8441972156
  S         4.0903883560        9.4942088323       12.1399315847
 Zn         0.0336233898       10.8473449013       -0.0337402536
 Zn         0.0337383858       13.4994946836        2.6719625132
 Zn         2.7388839521       10.7950288857        2.6709759531
 Zn         2.7386798646       13.5522822135       -0.0337567466
  S         1.4021130808       12.1741446065        1.3188187814
  S         1.3870447611       14.8567419069        4.0253674564
  S         4.0918275129       12.1526446116        4.0238583690
  S         4.1072601362       14.8789723720        1.3189859103
 Zn         0.0335881185       10.7921738825        5.3763579071
 Zn         0.0332905134       13.5080629548        8.0812812858
 Zn         2.7363141305       10.7999103707        8.0821449595
 Zn         2.7395076468       13.4990628960        5.3786957605
  S         1.3813893704       12.1540402870        6.7290967340
  S         1.3774751072       14.8907347679        9.4275750454
  S         4.0767676885       12.1766672784        9.4329083768
  S         4.0826424983       14.8668070773        6.7347103931
 Zn         0.0333475870       10.8482019217       10.7859688647
 Zn         0.0336683160       13.5552702598       13.4904277450
 Zn         2.7384958069       10.8507634929       13.4912492599
 Zn         2.7378340453       13.5550073924       10.7837862304
  S         1.3853226975       12.1985958521       12.1372656752
  S         1.3879521009       14.9022946400       14.8430383605
  S         4.0929913972       12.1977847609       14.8436082376
  S         4.0905133032       14.9039942432       12.1369079355
 Zn         5.4437889663        0.0270976987       -0.0337549245
 Zn         5.4437660675        2.6794785787        2.6715897703
 Zn         8.1487775355       -0.0256495021        2.6719296546
 Zn         8.1487244999        2.7317975108       -0.0336972330
  S         6.8123299569        1.3535053800        1.3192464435
  S         6.7967287907        4.0384480834        4.0236085585
  S         9.5019143907        1.3322216477        4.0250586120
  S         9.5172257676        4.0583048565        1.3186777603
 Zn         5.4430928568       -0.0280684663        5.3787763470
 Zn         5.4439282144        2.7301672782        8.0811254383
 Zn         8.1484863560        0.0195480514        8.0810319362
 Zn         8.1484448493        2.6788876609        5.3762671947
  S         6.7820247973        1.3513542738        6.7294467933
  S         6.7927441084        4.0808203641        9.4342226029
  S         9.4966023746        1.3738564985        9.4332913092
  S         9.4857920311        4.0574466152        6.7282898356
 Zn         5.4446555496        0.0278535224       10.7836316885
 Zn         5.4439190706        2.7353066013       13.4908457980
 Zn         8.1488739568        0.0302586981       13.4904844886
 Zn         8.1487343631        2.7347758960       10.7859968341
  S         6.7955013075        1.3794022107       12.1374338979
  S         6.7979838603        4.0821156981       14.8438986379
  S         9.5029267995        1.3768869099       14.8436632213
  S         9.5003301159        4.0842582466       12.1401554418
 Zn         5.4437470716        5.4370447767       -0.0337359793
 Zn         5.4439559357        8.0899061850        2.6704663314
 Zn         8.1487497708        5.3845641241        2.6707712046
 Zn         8.1488088222        8.1423511189       -0.0336858403
  S         6.8123630479        6.7638442704        1.3183509117
  S         6.7973382322        9.4469649748        4.0224119817
  S         9.5021486454        6.7419426171        4.0222534038
  S         9.5173791528        9.4691224732        1.3186890404
 Zn         5.4438910392        5.3844697717        5.3756417707
 Zn         5.4438968071        8.1347643904        8.0811397616
 Zn         8.1468073370        5.4327792516        8.0801720712
 Zn         8.1491424793        8.0881972297        5.3744401067
  S         6.7819886816        6.7613767650        6.7277498703
  S         6.7876322051        9.4804511542        9.4397196254
  S         9.4922701230        6.7758276231        9.4400466599
  S         9.4992164110        9.4467371336        6.7283773034
 Zn         5.4438363186        5.4402245532       10.7866953693
 Zn         5.4436864823        8.1456188440       13.4919184493
 Zn         8.1488127021        5.4403971248       13.4919651410
 Zn         8.1490025792        8.1441971060       10.7895665516
  S         6.7955966158        6.7896653811       12.1404064890
  S         6.7981325143        9.4928572526       14.8440081465
  S         9.5030526663        6.7874988740       14.8442626328
  S         9.5008741011        9.4942567173       12.1401043536
 Zn         5.4438006048       10.8474500871       -0.0337523090
 Zn         5.4439714602       13.4999640616        2.6715626679
 Zn         8.1491061043       10.7950746584        2.6711791577
 Zn         8.1488398274       13.5522517472       -0.0337789601
  S         6.8124000024       12.1741971754        1.3188624557
  S         6.7972264200       14.8568001114        4.0255268358
  S         9.5023338236       12.1513208895        4.0251393148
  S         9.5173779305       14.8785825711        1.3193190089
 Zn         5.4450117129       10.7946633759        5.3741345508
 Zn         5.4438602889       13.5078227145        8.0811063240
 Zn         8.1514544571       10.7997447742        8.0800835507
 Zn         8.1499310327       13.4992071230        5.3785485518
  S         6.7932340733       12.1530402646        6.7293406422
  S         6.7873231938       14.8903404368        9.4276580997
  S         9.4883084797       12.1776651899        9.4331237338
  S         9.4925795498       14.8671369663        6.7347720792
 Zn         5.4427386181       10.8505316235       10.7881315986
 Zn         5.4436556804       13.5556483083       13.4908476199
 Zn         8.1487343798       10.8507076834       13.4914059201
 Zn         8.1481492299       13.5550348491       10.7837021377
  S         6.7958764322       12.1998221073       12.1385732325
  S         6.7980945932       14.9025374728       14.8434186764
  S         9.5031803654       12.1977046758       14.8436400720
  S         9.5005705066       14.9040246124       12.1370429056
 Zn        10.8537906249        0.0268799212       -0.0337152053
 Zn        10.8535291503        2.6789639409        2.6711474590
 Zn        13.5584896375       -0.0259705842        2.6715085577
 Zn        13.5587201358        2.7321124444       -0.0337458518
  S        12.2222916982        1.3533162285        1.3187804362
  S        12.2068633828        4.0368089275        4.0223466880
  S        14.9122440627        1.3309009370        4.0238456069
  S        14.9273313865        4.0584762003        1.3185520596
 Zn        10.8528170170       -0.0281920911        5.3785027711
 Zn        10.8513499146        2.7274139337        8.0801351603
 Zn        13.5587751575        0.0199383599        8.0811766883
 Zn        13.5576306384        2.6764382675        5.3741285151
  S        12.1916537822        1.3512660686        6.7292851097
  S        12.1971259572        4.0713547024        9.4397186592
  S        14.9080879618        1.3749518019        9.4330659773
  S        14.9024726807        4.0475385053        6.7225653093
 Zn        10.8546464081        0.0276661049       10.7836599589
 Zn        10.8539268005        2.7348642457       13.4913674239
 Zn        13.5589496715        0.0299253427       13.4908956634
 Zn        13.5599175078        2.7324994010       10.7882118209
  S        12.2052632499        1.3782505678       12.1384950450
  S        12.2078982569        4.0820783837       14.8439220406
  S        14.9129172948        1.3769741447       14.8436684024
  S        14.9107056507        4.0841826938       12.1399985301
 Zn        10.8536620075        5.4369563447       -0.0336828555
 Zn        10.8538385198        8.0896455214        2.6707652450
 Zn        13.5585517086        5.3843947738        2.6705254854
 Zn        13.5586671270        8.1422426385       -0.0337023750
  S        12.2222172321        6.7636907079        1.3183364536
  S        12.2074900156        9.4453401283        4.0235510953
  S        14.9120292241        6.7415161343        4.0219023823
  S        14.9271023844        9.4691084579        1.3186358110
 Zn        10.8535576607        5.3829012990        5.3744009523
 Zn        10.8559613880        8.0942889061        8.0802366892
 Zn        13.5588521626        5.3931226118        8.0811038773
 Zn        13.5587658635        8.0868678422        5.3755700718
  S        12.2028574608        6.7431298852        6.7276296448
  S        12.1918717236        9.4707367337        9.4342711059
  S        14.8968243519        6.7668271929        9.4346436861
  S        14.9077896840        9.4468857164        6.7280001148
 Zn        10.8538419645        5.4389189244       10.7895595681
 Zn        10.8538218585        8.1454595712       13.4919384422
 Zn        13.5589180535        5.4402454886       13.4918783990
 Zn        13.5587973721        8.1429518529       10.7866938182
  S        12.2055322270        6.7889280704       12.1404264968
  S        12.2080999926        9.4927206878       14.8438936921
  S        14.9129853689        6.7874668204       14.8442027462
  S        14.9100849982        9.4927287589       12.1388039017
 Zn        10.8537726386       10.8472941618       -0.0337192572
 Zn        10.8538387783       13.4994642516        2.6719695525
 Zn        13.5588052337       10.7946227402        2.6716187959
 Zn        13.5586596516       13.5519006367       -0.0337457431
  S        12.2222423373       12.1736970804        1.3192477795
  S        12.2069995964       14.8567256721        4.0254866342
  S        14.9119406066       12.1515077012        4.0250347836
  S        14.9271908114       14.8782294894        1.3190173074
 Zn        10.8542877372       10.7921621200        5.3762884075
 Zn        10.8543821829       13.5077346925        8.0809013959
 Zn        13.5588192717       10.7964077106        8.0811423273
 Zn        13.5595401278       13.4990419948        5.3788019015
  S        12.2030877533       12.1525934347        6.7295028882
  S        12.1977481796       14.8910305013        9.4275437910
  S        14.8967919644       12.1763374135        9.4326373563
  S        14.9021044744       14.8676532699        6.7347217885
 Zn        10.8540115044       10.8484131148       10.7859699269
 Zn        10.8537803908       13.5553615882       13.4905513280
 Zn        13.5586727731       10.8503423530       13.4908602219
 Zn        13.5581307662       13.5548850333       10.7835121249
  S        12.2056631008       12.1989021383       12.1374733022
  S        12.2079709184       14.9020109708       14.8434970027
  S        14.9129267519       12.1974178878       14.8432494197
  S        14.9105319022       14.9040408659       12.1368968433
