     192
 i =       65, E =     -6851.6424530123
 Zn        -0.3087970212        0.0192109288        0.4258871799
 Zn         2.7440373092        5.7443623739        1.8152475550
 Zn         2.7466499127        1.9283945564        1.8215067384
 Zn         0.0323133510       -0.0202081264        3.8677247364
 Zn         0.0337822927        0.0197736756        7.6548150025
 Zn         0.0361791134       -0.0238851313       15.3272402268
 Zn        -0.3096302303        7.6518893820        0.3769733766
 Zn         5.4411315294       11.4633885426        3.8615620508
 Zn         5.4528155843        3.8372068255       19.2313182609
 Zn         5.4399410952        3.8346876356        3.8622766761
 Zn         5.4342535284       11.4625752078       19.2870018244
 Zn         2.7384108825        5.7452557201        9.5641433372
 Zn         2.7381433922        5.7446557622       17.1874273328
 Zn         2.7420926029       13.3710352037        1.8181902306
 Zn         8.1531321250        1.9262369782        5.7203047750
 Zn         7.8100508611        9.5578131257       20.6796270129
 Zn         8.1528925994        9.5576568650        5.7229530164
 Zn         7.8057881753        1.9288151353       20.6710958648
 Zn         2.7374864533        1.9281842769        9.5645824811
 Zn         2.7337862835        1.9276574677       17.1867689437
 Zn         2.7440116057        9.5564122461        1.8152716027
 Zn         8.1534355213       13.3752094097        5.7278806129
 Zn         7.8069997542        5.7463873984       20.6773624338
 Zn         8.1530347978        5.7442677405        5.7223767652
 Zn         7.8057307912       13.3783345200       20.6747190158
 Zn         0.0352052150        0.0188327630       11.4861051096
 Zn         0.0350056408        0.0263546400       19.2275373015
 Zn         0.0309225955        7.6502756199        3.8596073226
 Zn         5.4412257605       11.4684473371        7.6546307266
 Zn         5.1003252467        3.8326457020        0.3795624956
 Zn         5.4420645129        3.8384151036        7.6533922022
 Zn         5.1003675016       11.4632830501        0.3795274752
 Zn         0.0319747962        7.6517927808        7.6537772849
 Zn         0.0326264068        7.6517405902       15.3266846081
 Zn         2.7401891140       13.3775205307        9.5645235960
 Zn         2.7391951456       13.3743834903       17.1829683674
 Zn         2.7385346447        9.5582028066        9.5657558063
 Zn         2.7381636003        9.5603270558       17.2359199171
 Zn         0.0331806965        7.6521608389       11.4858572686
 Zn         0.0915806422        7.6513923214       19.2329207421
 Zn         5.1011373184       -0.0195466459        0.4258060078
 Zn         0.0300722234        3.8342625878        3.8611453035
 Zn         0.0504639953       11.4713085668       19.2292664250
 Zn         0.0310664698       11.4630505088        3.8621219798
 Zn         0.0364331910        3.8384190343       19.2330851282
 Zn         8.1537828225        5.7447110174        1.8154113668
 Zn         2.7429318094        9.5575413928        5.7230658856
 Zn         2.3966523799        1.9344115966       20.6671703114
 Zn         2.7431328148        1.9262361246        5.7206598652
 Cu         2.3393695115        9.5777260606       20.6865369033
 Zn         8.1531368119        1.9293397125        1.8215836730
 Zn         2.7427006093        5.7444314152        5.7222592467
 Zn         2.4086410367       13.4915014126       20.6192590128
 Zn         2.7432720749       13.3751931390        5.7272874629
 Zn         2.4085589664        5.6776389128       20.6704121437
 Zn         5.4423435671       -0.0194952304        3.8676941912
 Zn         0.0320541006        3.8383762286        7.6533925082
 Zn        -0.3100464681       11.4681771662        0.3786231986
 Zn         0.0311466118       11.4684516564        7.6542816383
 Zn        -0.3092757278        3.8378193859        0.3809814485
 Zn         5.4438629562        0.0198401914        7.6546730753
 Zn         5.4508401087        0.0175170855       15.3259713141
 Zn         5.1006817865        7.6495690008        0.3774111776
 Zn         8.1484153254        5.7451407849        9.5652422251
 Zn         8.1446237167        5.7501815080       17.2302872623
 Zn         8.1553611896       13.3719487395        1.8181434832
 Zn         8.1479334924        1.9281909401        9.5644242780
 Zn         8.1475174581        1.9285470539       17.1821300644
 Zn         8.1540570100        9.5566695773        1.8151445508
 Zn         5.4451921002        0.0195994308       11.4857053825
 Zn         5.4580031748        0.0264794485       19.2272510011
 Zn         5.4408726528        7.6503080887        3.8615147667
 Zn         5.4419729657        7.6517561762        7.6545027033
 Zn         5.4489852391        7.6549931480       15.3368173580
 Zn         0.0323743994       11.4685417668       11.4857453658
 Zn         0.0331300113        3.8390595020       11.4860535949
 Zn         8.1501233354       13.3777042444        9.5655421039
 Zn         8.1423113978       13.3711661024       17.2293708506
 Zn         2.7345848301        1.9272227464       13.3979080245
 Zn         2.7383240031        9.5580714195       13.4041833679
 Zn         8.1484170846        9.5582282378        9.5654143620
 Zn         8.1457796384        9.5572812233       17.2349485495
 Zn         2.7395388547       13.3749471740       13.3951406565
 Zn         2.7366896205        5.7456255236       13.3966618281
 Zn         5.4435607268        7.6520597164       11.4878630177
 Zn         5.4334406221        7.6583984231       19.2886244023
 Zn         0.0338213191       11.4629166602       15.3266729616
 Zn         0.0334117883        3.8379962831       15.3281502842
 Zn         5.4434156511        3.8386082868       11.4860641361
 Zn         5.4426884588       11.4684281734       11.4872170257
 Zn         8.1474319836        9.5578780647       13.4025501517
 Zn         8.1487331746        1.9271322498       13.3986652154
 Zn         8.1475623668        5.7454132188       13.4018955463
 Zn         8.1471670568       13.3758568212       13.3987703545
 Zn         5.4492257250        3.8393811404       15.3268033181
 Zn         5.4482157840       11.4651463598       15.3357799377
  S         1.4011428307       -0.0001828342        1.9453506443
  S         1.2833484542        0.0427201134       21.1911905026
  S         9.4357666586       13.3979548688       -0.1172270059
  S         9.4217561889        1.9205561695       -0.1240495536
  S         4.0735732600        5.7422913129        3.7969422976
  S         4.0055137958        5.7397037320       -0.1376725401
  S         1.3852229289        3.8340496660        1.9283215911
  S         1.3819033232        7.6502760567        1.9255982279
  S         4.0854722152        1.9119560435        3.8029613543
  S         4.0248879219        1.9030268637       -0.1159684874
  S         1.3969161259       -0.0000566728        5.7538982081
  S         9.4865258148       13.3751112653        3.8031364745
  S         9.4945934117        1.9111825741        3.8007062972
  S         1.3893725213        0.0043686410        9.5705392789
  S         1.3880495940       -0.0005261718       13.4054037158
  S         9.4147079776        5.7437794588       -0.1378249286
  S         9.4146247605        9.5612511669       -0.1383671639
  S         6.7981676116       11.4675883925        5.7507626088
  S         4.0929202715        5.7364077831       19.1223133874
  S         6.7823876909        3.8358628222       17.2533566395
  S         4.0734850313        9.5570718086        3.7970512022
  S         6.7988456730        3.8344120551        5.7500509497
  S         4.0365964093        9.5660520802       19.1929870379
  S         6.7652586865       11.4629825982       17.2861954104
  S         4.0848238152        5.7451528932       11.4806736142
  S         4.0943825338        5.7447907758       15.2996504499
  S         1.3835203727       11.4645839910        1.9284696846
  S         9.4967302243        1.9263784243        7.6464329705
  S         6.7251880136       11.4699147961       21.2127176619
  S         9.5220272039        9.5549023016       19.1519800673
  S         6.8071274241       -0.0000993466        5.7537574388
  S         9.4949873419        9.5604117599        7.6472834660
  S         6.7242654870        0.0053603770       21.1765684479
  S         9.4955894114        1.9309397875       19.1184621262
  S         4.0861333072        1.9265802786       11.4821237849
  S         4.0951929478        1.9261820787       15.3012492674
  S         9.5046271314       13.3912689834        7.6490854772
  S         6.7196277998        7.6528203342       21.2164940979
  S         9.5119920986        5.7564028716       19.1437462481
  S         9.4945043914        5.7449868033        7.6471790220
  S         6.7966891865        7.6509511893        5.7502286202
  S         9.5119770713       13.3921209786       19.1409260650
  S         1.3777002973        0.0004931587       17.2530906357
  S         9.4840325512        5.7419215804        3.7968938581
  S         9.4831566884        9.5567353850        3.7968713910
  S         6.7926106318       11.4696562656        9.5707668573
  S         6.7108267580        3.8358773655       21.1868364494
  S         4.0852012071        9.5603630725        7.6475990771
  S         6.7907248019        3.8361344050        9.5696868276
  S         4.0044064612        9.5570176729       -0.1385262579
  S         4.0846000065        5.7449855030        7.6463431806
  S         1.3797241180        7.6519526866        9.5695536201
  S         1.3773577509        7.6519468229       13.4048768114
  S         9.4908104810        5.7442536955       15.3183780115
  S         9.4894007726        9.5575778352       15.3207231463
  S         4.0948374899       13.3914902029       11.4797197936
  S         4.1038580212       13.3909870171       15.2972765957
  S         1.3705550588       11.4723490052       17.2445051314
  S         1.3825516167       11.4696588024        9.5697213266
  S         4.0846923147        9.5604336777       11.4852540521
  S         4.0854464212        9.5608185304       15.3229149455
  S         1.3755784818        7.6496212949       17.2415179734
  S         9.4943636748        9.5606763644       11.4842206601
  S         9.4939422914        5.7455377033       11.4837593119
  S         6.8109828220       -0.0039859189        1.9451991690
  S         4.0122405534       13.3805516375       -0.1256812067
  S         1.3883931253        3.8342623081        5.7497944409
  S         1.3884593067       11.4674252477        5.7507833401
  S         1.3691210436        3.8359739604       17.2555013501
  S         6.7942318519        3.8354821565        1.9294232112
  S         6.7918674718        7.6506361952        1.9265895411
  S         4.0879473704        1.9285195484       19.1236244673
  S         4.0866010261        1.9264326157        7.6473991370
  S         1.4067017169       11.5316496781       21.1100353737
  S         1.3864122947        7.6511031757        5.7492880469
  S         4.1141643708       13.4070787617       19.1057588236
  S         4.0948081560       13.3912698197        7.6477268227
  S         1.4002679606        7.6302013504       21.1426097216
  S         4.0757629705       13.3758918488        3.8008077919
  S         1.3806813772        3.8364902497        9.5698423197
  S         1.2774897176        3.8160216740       21.2040203242
  S         6.7994880845        0.0047605217        9.5700801577
  S         6.7995287745        0.0043927929       13.4024293761
  S         6.7941562629       11.4661240585        1.9273400674
  S         9.4982687237        1.9266363430       11.4802782854
  S         9.5145432363        1.9119688817       15.2986115837
  S         6.7918420275        0.0065522065       17.2491649602
  S         6.7897050578        7.6519138889        9.5711230917
  S         6.7875592513        7.6518139746       13.4101732914
  S         1.3797880637       11.4685685118       13.4042077876
  S         1.3792213610        3.8366938280       13.4057790021
  S         9.5034161965       13.3915277499       11.4838171843
  S         9.4916767122       13.3748406318       15.3172058419
  S         6.7617015189        7.6571343190       17.2877430473
  S         6.7919831563        3.8345113289       13.4034851245
  S         6.7894032197       11.4680061515       13.4091055002
