     192
 i =       30, E =     -6902.4397331044
 Cu         4.7565832151        8.6756180126       21.7020527865
 Zn        -0.3080670000       -0.0170460000        0.3683050000
 Zn         2.7483260000        5.7434170000        1.8140690000
 Zn         2.7496720000        1.9240330000        1.8169870000
 Zn         0.0316460000       -0.0200160000        3.8644530000
 Zn         0.0331860000        0.0203030000        7.6553550000
 Zn         0.0411190000        0.0174410000       15.3238490000
 Zn        -0.3097760000        7.6505230000        0.3642340000
 Zn         5.4397070000       11.4631670000        3.8642550000
 Zn         5.4425940986        3.8267721131       19.2292490583
 Zn         5.4387810000        3.8337720000        3.8632180000
 Zn         5.4410067696       11.4592349464       19.2326866521
 Zn         2.7378690000        5.7447800000        9.5644530000
 Zn         2.7339388502        5.7443671680       17.1886199810
 Zn         2.7476460000       13.3726220000        1.8153000000
 Zn         8.1517230000        1.9261370000        5.7237770000
 Zn         7.8140504877        9.6276757231       20.6243843056
 Zn         8.1512510000        9.5573430000        5.7270600000
 Zn         7.8003181477        1.8823197787       20.6708752290
 Zn         2.7376830000        1.9278910000        9.5647070000
 Zn         2.7402080000        1.9206040000       17.1866070000
 Zn         2.7483960000        9.5562850000        1.8139820000
 Zn         8.1518970000       13.3754030000        5.7308500000
 Zn         7.7715493353        5.6757198704       20.6210352898
 Zn         8.1511950000        5.7442280000        5.7264940000
 Zn         7.8084070000       13.3731070000       20.6928310000
 Zn         0.0352830000        0.0198830000       11.4845320000
 Zn         0.0399730000       -0.0220220000       19.2290380000
 Zn         0.0295690000        7.6500570000        3.8634130000
 Zn         5.4404020000       11.4686680000        7.6564130000
 Zn         5.1005130000        3.8343040000        0.3648150000
 Zn         5.4413570000        3.8383770000        7.6553780000
 Zn         5.1003380000       11.4637960000        0.3647520000
 Zn         0.0312990000        7.6517440000        7.6556160000
 Zn         0.0402280000        7.6511610000       15.3217470000
 Zn         2.7399480000       13.3783690000        9.5642110000
 Zn         2.7356290000       13.3749060000       17.1846010000
 Zn         2.7378340000        9.5584420000        9.5645200000
 Zn         2.7326445763        9.5576107781       17.2239375179
 Zn         0.0336750000        7.6517180000       11.4843020000
 Zn         0.1013090583        7.6571043696       19.2891878289
 Zn         5.1019300000       -0.0170400000        0.3682800000
 Zn         0.0288010000        3.8337520000        3.8631560000
 Zn         0.0319010000       11.5155360000       19.2295150000
 Zn         0.0297250000       11.4632050000        3.8641380000
 Zn         0.0295950000        3.7764790000       19.2271940000
 Zn         8.1583530000        5.7434170000        1.8140460000
 Zn         2.7411590000        9.5573420000        5.7271830000
 Zn         2.3940739612        1.9331806914       20.6691005032
 Zn         2.7417040000        1.9261360000        5.7237300000
 Zn         2.5485491880        9.6797348756       21.0896658711
 Zn         8.1596800000        1.9240300000        1.8169980000
 Zn         2.7410890000        5.7442030000        5.7265760000
 Zn         2.3835759117       13.4190960217       20.6821823837
 Zn         2.7418780000       13.3753870000        5.7308330000
 Zn         2.4113245611        5.7448989755       20.6231940762
 Zn         5.4416700000       -0.0200010000        3.8643840000
 Zn         0.0314340000        3.8383580000        7.6551200000
 Zn        -0.3096620000       11.4638270000        0.3647280000
 Zn         0.0304440000       11.4687160000        7.6560640000
 Zn        -0.3094800000        3.8342940000        0.3647900000
 Zn         5.4432540000        0.0203850000        7.6551730000
 Zn         5.4460670000       -0.0207440000       15.3192250000
 Zn         5.1001940000        7.6505200000        0.3641410000
 Zn         8.1483670000        5.7447740000        9.5640170000
 Zn         8.2014650000        5.6832920000       17.1897370000
 Zn         8.1576460000       13.3726240000        1.8153140000
 Zn         8.1475790000        1.9279700000        9.5645680000
 Zn         8.1408530000        1.8781740000       17.1850590000
 Zn         8.1584020000        9.5562670000        1.8139310000
 Zn         5.4456890000        0.0199210000       11.4836220000
 Zn         5.4404827567       -0.0264275003       19.2324859200
 Zn         5.4394750000        7.6500540000        3.8629970000
 Zn         5.4409100000        7.6517330000        7.6538810000
 Zn         5.4436470000        7.6497870000       15.2710620000
 Zn         0.0328850000       11.4697130000       11.4837360000
 Zn         0.0339970000        3.8377640000       11.4848550000
 Zn         8.1500590000       13.3782820000        9.5644620000
 Zn         8.1436190000       13.3744160000       17.1797030000
 Zn         2.7394910000        1.9258020000       13.3971100000
 Zn         2.7365370000        9.5589970000       13.3927600000
 Zn         8.1481610000        9.5584020000        9.5640270000
 Zn         8.2041480000        9.6097910000       17.1892800000
 Zn         2.7376820000       13.3775280000       13.3890560000
 Zn         2.7369490000        5.7428840000       13.3938970000
 Zn         5.4419500000        7.6517480000       11.4764660000
 Zn         5.4477304576        7.7043551766       19.0290524129
 Zn         0.0417960000       11.4767320000       15.3213810000
 Zn         0.0420690000        3.8303220000       15.3233460000
 Zn         5.4435800000        3.8382640000       11.4854300000
 Zn         5.4428500000       11.4694810000       11.4847850000
 Zn         8.1492070000        9.5613260000       13.3908210000
 Zn         8.1457540000        1.9262450000       13.3953740000
 Zn         8.1489630000        5.7409690000       13.3913630000
 Zn         8.1498370000       13.3773430000       13.3924570000
 Zn         5.4494020000        3.8306060000       15.3296650000
 Zn         5.4486080000       11.4645860000       15.3260350000
  S         1.3793680000       -0.0069290000        1.9264110000
  S         1.2918656663        0.0336670555       21.1813028025
  S         9.4006340000       13.3751450000       -0.1284920000
  S         9.4120040000        1.9079220000       -0.1196800000
  S         4.0666910000        5.7404540000        3.7966470000
  S         3.9875690000        5.7397480000       -0.1315010000
  S         1.3729560000        3.8307590000        1.9262130000
  S         1.3700370000        7.6482850000        1.9254990000
  S         4.0765540000        1.9094680000        3.7984280000
  S         4.0019910000        1.9079230000       -0.1196640000
  S         1.3936400000       -0.0004140000        5.7466960000
  S         9.4782280000       13.3744610000        3.7981550000
  S         9.4865680000        1.9094630000        3.7984910000
  S         1.3895060000        0.0046970000        9.5672520000
  S         1.3902280000        0.0032200000       13.4026610000
  S         9.3976070000        5.7397690000       -0.1315290000
  S         9.3963530000        9.5560910000       -0.1323250000
  S         6.7957930000       11.4672440000        5.7475480000
  S         4.1257691147        5.7526575357       19.0881425626
  S         6.7842470000        3.8183340000       17.2666550000
  S         4.0660700000        9.5559060000        3.7967040000
  S         6.7956300000        3.8338450000        5.7464660000
  S         4.0713573018        9.5859517030       19.1260917668
  S         6.7755940000       11.4611840000       17.2665140000
  S         4.0858500000        5.7454050000       11.4813520000
  S         4.0951750000        5.7420230000       15.3054670000
  S         1.3708270000       11.4639230000        1.9258920000
  S         9.4959570000        1.9265590000        7.6438470000
  S         6.6866350096       11.4759406169       21.2122230211
  S         9.5200430000        9.5625400000       19.1495300000
  S         6.8037170000       -0.0004210000        5.7465130000
  S         9.4952630000        9.5604170000        7.6441110000
  S         6.7012448101       -0.0179475599       21.1915911440
  S         9.4848870000        1.8857970000       19.1150910000
  S         4.0888020000        1.9269910000       11.4798880000
  S         4.1022360000        1.9123380000       15.3020840000
  S         9.5044730000       13.3915520000        7.6447220000
  S         6.7026603699        7.6858320054       21.0803321011
  S         9.5203750000        5.7269140000       19.1484640000
  S         9.4945550000        5.7448680000        7.6439120000
  S         6.7940880000        7.6505320000        5.7456170000
  S         9.4783390000       13.3877740000       19.1148220000
  S         1.3796580000       -0.0035470000       17.2507710000
  S         9.4767840000        5.7404530000        3.7965570000
  S         9.4761810000        9.5559290000        3.7965650000
  S         6.7934350000       11.4696480000        9.5686940000
  S         6.6900019157        3.7991535938       21.1986899196
  S         6.7911620000        3.8364560000        9.5686160000
  S         3.9863100000        9.5560840000       -0.1322760000
  S         4.0840600000        5.7448560000        7.6443820000
  S         1.3807620000        7.6517860000        9.5683850000
  S         1.3833480000        7.6508070000       13.4054050000
  S         9.5193750000        5.7382250000       15.2910740000
  S         9.5204850000        9.5658660000       15.2904640000
  S         4.0963090000       13.3919640000       11.4785310000
  S         4.0925650000       13.3716410000       15.2993500000
  S         1.3683680000       11.4654860000       17.2608720000
  S         1.3837750000       11.4698810000        9.5675020000
  S         4.0871930000        9.5604900000       11.4812170000
  S         4.0934570000        9.5544140000       15.3048370000
  S         1.3740110000        7.6485540000       17.2608090000
  S         9.4981307093        9.5614792573       11.4761040665
  S         9.4976530000        5.7446780000       11.4790270000
  S         6.7893830000       -0.0069280000        1.9263260000
  S         3.9906610000       13.3751130000       -0.1284780000
  S         1.3856800000        3.8337800000        5.7462180000
  S         1.3858570000       11.4672610000        5.7472020000
  S         1.3711710000        3.8290330000       17.2600840000
  S         6.7829570000        3.8307630000        1.9262850000
  S         6.7800270000        7.6482700000        1.9251580000
  S         4.0890280000        1.9103440000       19.1313000000
  S         4.0864839839        1.9257648406        7.6480521923
  S         1.2080370000       11.5774010000       21.2379880000
  S         1.3903553322        7.6534293266        5.7580871480
  S         4.0801090000       13.3661170000       19.1300870000
  S         4.0932538474       13.3840101910        7.6493047316
  S         1.3832600000        7.6476180000       21.1850610000
  S         4.0714111481       13.3746088955        3.8031662266
  S         1.3813040000        3.8360360000        9.5678130000
  S         1.3110677300        3.8428313518       21.1639640545
  S         6.7999428777        0.0044978471        9.5685718050
  S         6.7990670000        0.0004080000       13.4016720000
  S         6.7808210000       11.4638970000        1.9259770000
  S         9.4972520000        1.9270280000       11.4807370000
  S         9.5031890000        1.9219730000       15.3014760000
  S         6.7688550000       -0.0207820000       17.2457290000
  S         6.7913380000        7.6516660000        9.5634890000
  S         6.8009400000        7.6513890000       13.3819340000
  S         1.3850770000       11.4693060000       13.4020180000
  S         1.3846870000        3.8330550000       13.4041360000
  S         9.5054340000       13.3914150000       11.4790230000
  S         9.5105710000       13.3896920000       15.2995980000
  S         6.8688590000        7.6469060000       17.1477570000
  S         6.7909130000        3.8364610000       13.4080030000
  S         6.7927440000       11.4676490000       13.4075780000
