     193
 i =       13, E =     -6852.2001742321
 Zn        -0.3098160433        0.0199102003        0.4258855983
 Zn         2.7447908335        5.7443503374        1.8126966514
 Zn         2.7476742239        1.9282960883        1.8191813795
 Zn         0.0322942697       -0.0202699037        3.8670205662
 Zn         0.0340654295        0.0201212792        7.6542501092
 Zn         0.0370285021       -0.0165752587       15.3221392884
 Zn        -0.3107171347        7.6519042883        0.3759896984
 Zn         5.4410362721       11.4632954010        3.8605399665
 Zn         5.4486940124        3.8433601810       19.2326722561
 Zn         5.4398643680        3.8348907005        3.8605428164
 Zn         5.4630528505       11.4710814724       19.2907982116
 Zn         2.7387195833        5.7453818344        9.5645379799
 Zn         2.7369888686        5.7476981297       17.2292450470
 Zn         2.7425955927       13.3708799688        1.8160439174
 Zn         8.1531441414        1.9266738095        5.7191294974
 Zn         7.8062146150        9.5615690729       20.6779923116
 Zn         8.1528909863        9.5572344894        5.7220649077
 Zn         7.8024040063        1.9363085147       20.6260595326
 Zn         2.7378214235        1.9283605590        9.5632570410
 Zn         2.7347027902        1.9348877581       17.1793498368
 Zn         2.7447450762        9.5565007704        1.8126835450
 Zn         8.1536156647       13.3748740162        5.7267961004
 Zn         7.8077950876        5.7470563748       20.6234256877
 Zn         8.1528604967        5.7446718349        5.7211659918
 Zn         7.8041735401       13.4210965335       20.6248337772
 Zn         0.0354431046        0.0198934884       11.4850704496
 Zn         0.0341325092        0.0299368359       19.2244573588
 Zn         0.0307975666        7.6502854426        3.8589017000
 Zn         5.4414170397       11.4681551237        7.6539750693
 Zn         5.0994064871        3.8328279953        0.3786720557
 Zn         5.4423006322        3.8386407751        7.6526691859
 Zn         5.0996392855       11.4630804553        0.3787438492
 Zn         0.0323011692        7.6517330797        7.6531148806
 Zn         0.0370031281        7.6519690908       15.3328976887
 Zn         2.7404026151       13.3773659615        9.5640797971
 Zn         2.7411251254       13.4184384782       17.1817763334
 Zn         2.7384137417        9.5580810868        9.5629729757
 Zn         2.7391679619        9.5554202237       17.1916002757
 Zn         0.0336100029        7.6520117330       11.4864464114
 Zn         0.0968987058        7.6528352655       19.2959065036
 Zn         5.1001585689       -0.0198412929        0.4258972541
 Zn         0.0299628619        3.8345137606        3.8599779476
 Zn         0.0271437526       11.4694042031       19.1657467388
 Zn         0.0309682000       11.4629092914        3.8611054387
 Zn         0.0334843934        3.8400416708       19.2308964003
 Zn         8.1546355262        5.7446681032        1.8127749537
 Zn         2.7429218998        9.5572354767        5.7216418431
 Zn         2.3950596713        1.9336110869       20.6214870744
 Zn         2.7432580395        1.9267418888        5.7194693515
 Cu         2.7362571199        8.7321686035       20.4584059328
 Zn         8.1538251943        1.9293327784        1.8193540885
 Zn         2.7427855594        5.7446942576        5.7214590027
 Zn         2.3996558368       13.5101611630       20.6170515980
 Zn         2.7435060284       13.3749358243        5.7265275731
 Zn         2.3335786885        5.6832377258       20.6933860600
 Zn         5.4422996988       -0.0195784816        3.8670652547
 Zn         0.0323745899        3.8386588294        7.6526116045
 Zn        -0.3108608141       11.4682257577        0.3779882829
 Zn         0.0312385208       11.4682456431        7.6538394803
 Zn        -0.3100823921        3.8380262420        0.3797994002
 Zn         5.4440335636        0.0201827553        7.6541168930
 Zn         5.4502861699        0.0211070442       15.3226841647
 Zn         5.0992443252        7.6496236636        0.3760138189
 Zn         8.1484708992        5.7452651459        9.5630368412
 Zn         8.1500040306        5.7434714735       17.1828171176
 Zn         8.1562996855       13.3718063332        1.8159070436
 Zn         8.1479546074        1.9284376491        9.5634233676
 Zn         8.1431341258        1.9296133469       17.1761216285
 Zn         8.1548116513        9.5568638614        1.8126454969
 Zn         5.4455164209        0.0197024867       11.4848479896
 Zn         5.4545141897        0.0246522357       19.2270152466
 Zn         5.4407692737        7.6503452719        3.8588133403
 Zn         5.4423186112        7.6517527092        7.6528803842
 Zn         5.4466282969        7.6516686198       15.3277517788
 Zn         0.0325856550       11.4685076560       11.4853531923
 Zn         0.0337085988        3.8392800231       11.4851864444
 Zn         8.1502489921       13.3775424225        9.5637498307
 Zn         8.1404922688       13.3746090154       17.1812214997
 Zn         2.7353278543        1.9281068360       13.3943620860
 Zn         2.7375785596        9.5574530901       13.3937480753
 Zn         8.1486770234        9.5580532336        9.5648142585
 Zn         8.1470018145        9.5565477948       17.2326961237
 Zn         2.7400040978       13.3754609826       13.3946880760
 Zn         2.7379556472        5.7460940073       13.4017192922
 Zn         5.4436431596        7.6519622734       11.4855661065
 Zn         5.4552080383        7.6524129692       19.2267617834
 Zn         0.0370405949       11.4618561979       15.3267812271
 Zn         0.0381764506        3.8361163919       15.3261870983
 Zn         5.4432465372        3.8392837173       11.4854921723
 Zn         5.4430798204       11.4680781097       11.4862055325
 Zn         8.1483591008        9.5577933049       13.4022360401
 Zn         8.1479861783        1.9288970706       13.3964093552
 Zn         8.1471648149        5.7453964029       13.3942687375
 Zn         8.1470429808       13.3757218706       13.3914080517
 Zn         5.4453156947        3.8428286387       15.3259416095
 Zn         5.4486788403       11.4655177986       15.3337239029
  S         1.4021603584       -0.0000928955        1.9345036799
  S         1.2766916685        0.0535660364       21.2021408538
  S         9.4363285541       13.3983503153       -0.1339041160
  S         9.4218455754        1.9207760636       -0.1413684723
  S         4.0728426090        5.7423195096        3.7860814323
  S         4.0055661800        5.7395822817       -0.1556129990
  S         1.3858624958        3.8339318349        1.9166371023
  S         1.3827583914        7.6503446664        1.9142387630
  S         4.0850220479        1.9119490663        3.7918444673
  S         4.0255842029        1.9027534789       -0.1330351348
  S         1.3972890620        0.0000346388        5.7478043011
  S         9.4862327551       13.3750394145        3.7922230911
  S         9.4941557982        1.9112516418        3.7895691360
  S         1.3900298346        0.0044311955        9.5693518908
  S         1.3903074304        0.0004491739       13.4081733857
  S         9.4149517347        5.7437997808       -0.1558359956
  S         9.4150152753        9.5615544834       -0.1559416812
  S         6.7982248050       11.4674754551        5.7444719833
  S         4.0686721590        5.7357411460       19.1733233954
  S         6.7762579563        3.8355595387       17.2590081658
  S         4.0728418303        9.5571357736        3.7857713705
  S         6.7985508244        3.8346633502        5.7436151197
  S         4.1398502449        9.5775287517       19.0773724596
  S         6.7761252140       11.4723321528       17.2843351943
  S         4.0842151666        5.7455391468       11.4850842408
  S         4.0834051146        5.7463273393       15.3234327318
  S         1.3839626210       11.4645230223        1.9174891527
  S         9.4967974797        1.9266021021        7.6420177975
  S         6.7545206437       11.4991811413       21.2213404924
  S         9.5224327608        9.5553232004       19.1605613461
  S         6.8073196387       -0.0001434082        5.7477107672
  S         9.4952696611        9.5603931497        7.6429162248
  S         6.7205353103        0.0230509971       21.1846584835
  S         9.4990675501        1.9278959146       19.1065608446
  S         4.0876093336        1.9263371890       11.4814494156
  S         4.0949929702        1.9267542536       15.3014693560
  S         9.5052361192       13.3915515876        7.6442008964
  S         6.7178396405        7.6494824480       21.1922385167
  S         9.5110149316        5.7521080451       19.1096858904
  S         9.4947815010        5.7449894023        7.6413718290
  S         6.7961652981        7.6509777266        5.7427199696
  S         9.5138590663       13.4037987878       19.1132042114
  S         1.3737294590        0.0157006071       17.2611081988
  S         9.4832485591        5.7419390865        3.7857436914
  S         9.4824559416        9.5567729505        3.7861972244
  S         6.7931683764       11.4698694094        9.5693158839
  S         6.7197267517        3.8397997516       21.1868285551
  S         4.0854510107        9.5603600241        7.6414743164
  S         6.7906717249        3.8362686595        9.5683763865
  S         4.0043755120        9.5572794914       -0.1563182657
  S         4.0845562903        5.7450693573        7.6424411119
  S         1.3798058704        7.6520696192        9.5688033863
  S         1.3776283909        7.6527246179       13.4110881007
  S         9.5050110263        5.7406979484       15.2990603667
  S         9.4950367725        9.5602734053       15.3267256407
  S         4.0955842556       13.3916213646       11.4822311789
  S         4.1045127977       13.3943295970       15.3061363510
  S         1.3901673901       11.4863813530       17.2569122319
  S         1.3827172688       11.4698800778        9.5689093747
  S         4.0859330732        9.5608567438       11.4791994696
  S         4.0918873167        9.5620013483       15.2977689979
  S         1.3656746086        7.6541866122       17.2749037275
  S         9.4952413232        9.5611513590       11.4857280961
  S         9.4953119139        5.7451784024       11.4799125907
  S         6.8120847139       -0.0041038730        1.9345338880
  S         4.0126215904       13.3804527538       -0.1423835420
  S         1.3882986139        3.8345150872        5.7431887437
  S         1.3884540876       11.4673105549        5.7447764161
  S         1.3689168375        3.8363411412       17.2643441307
  S         6.7948741698        3.8354972618        1.9178970635
  S         6.7927461553        7.6507116065        1.9141625873
  S         4.0961397265        1.9256593882       19.1146165910
  S         4.0867967887        1.9265915597        7.6424051991
  S         1.2003655264       11.6630400540       21.2230562453
  S         1.3860999693        7.6510951162        5.7429170429
  S         4.1020742818       13.3972661690       19.1345784799
  S         4.0952178547       13.3914955894        7.6439438167
  S         1.2010286642        7.5331442950       21.3344932887
  S         4.0753002595       13.3758479997        3.7900102184
  S         1.3812559845        3.8362814226        9.5679621167
  S         1.2580632915        3.7752128363       21.2127458359
  S         6.7999865880        0.0045449792        9.5688958813
  S         6.8008893068        0.0044350633       13.4062621836
  S         6.7947342754       11.4660363552        1.9161591607
  S         9.4982261361        1.9271505927       11.4811747369
  S         9.5128374125        1.9133707424       15.3014941305
  S         6.7861207207        0.0037123090       17.2567846403
  S         6.7900884414        7.6518865476        9.5679915517
  S         6.7895982749        7.6514283108       13.4077240034
  S         1.3814314155       11.4695293294       13.4090087796
  S         1.3817340848        3.8354669280       13.4070399304
  S         9.5051520174       13.3923053462       11.4816096516
  S         9.5050324090       13.3780841329       15.3043150121
  S         6.7868069112        7.6423736393       17.2571947826
  S         6.7901509571        3.8358141487       13.4080312193
  S         6.7913289922       11.4695670408       13.4117809063
  H         2.1192083252       10.7069423835       20.9272832674
