     216
 i =       24, E =     -7710.0967829303
 Zn         0.0338507312        0.0267941355       -0.0339626267
 Zn         0.0337275425        2.6789093270        2.6708185023
 Zn         2.7387906770       -0.0253700505        2.6717791790
 Zn         2.7389781969        2.7317311385       -0.0339712967
  S         1.4034520110        1.3533114027        1.3180090917
  S         1.3872859534        4.0364737298        4.0217903572
  S         4.0920155937        1.3319064503        4.0249239710
  S         4.1078610993        4.0579554511        1.3178454003
 Zn         0.0329511783       -0.0283853865        5.3788602227
 Zn         0.0360659247        2.7271372458        8.0823104781
 Zn         2.7408075359        0.0221018343        8.0812681334
 Zn         2.7386419166        2.6784000736        5.3760027675
  S         1.3727945931        1.3501625754        6.7294775786
  S         1.3833629524        4.0807849753        9.4342591604
  S         4.0956759591        1.3831628117        9.4318614170
  S         4.0737315473        4.0565753827        6.7270493422
 Zn         0.0350245451        0.0279555270       10.7839125090
 Zn         0.0341774825        2.7348842260       13.4910836979
 Zn         2.7388447477        0.0303877519       13.4904371652
 Zn         2.7386725437        2.7354350852       10.7858492820
  S         1.3872595150        1.3801708798       12.1366518298
  S         1.3904708791        4.0817087363       14.8415902119
  S         4.0941361085        1.3778518108       14.8412591863
  S         4.0981090488        4.0869242051       12.1314948009
 Zn         0.0340611383        5.4366908433       -0.0342481413
 Zn         0.0335541741        8.0894775005        2.6704649861
 Zn         2.7384461323        5.3843712746        2.6699161858
 Zn         2.7385994289        8.1421861618       -0.0338621484
  S         1.4022864345        6.7636244101        1.3175266561
  S         1.3862012873        9.4472422991        4.0220429617
  S         4.0890575390        6.7424905378        4.0188656255
  S         4.1080242423        9.4695552514        1.3181834255
 Zn         0.0339017241        5.3826637647        5.3724902602
 Zn         0.0317225567        8.0940244361        8.0822874909
 Zn         2.7403727105        5.4329197735        8.0821399717
 Zn         2.7391300825        8.0883360070        5.3725003322
  S         1.3766643545        6.7520249821        6.7218228219
  S         1.3695918207        9.4705196597        9.4342347487
  S         4.0847606355        6.7857533772        9.4351904034
  S         4.0794660162        9.4589181649        6.7224142671
 Zn         0.0336319505        5.4388353342       10.7879556922
 Zn         0.0337253940        8.1452241689       13.4918137112
 Zn         2.7404597161        5.4404005444       13.4901775050
 Zn         2.7382391063        8.1443654473       10.7883526270
  S         1.3855297474        6.7884545818       12.1403427887
  S         1.3882437135        9.4928561987       14.8435602755
  S         4.0931762936        6.7868305474       14.8439467250
  S         4.0897803418        9.4942417402       12.1405739270
 Zn         0.0336208920       10.8472434594       -0.0339030488
 Zn         0.0337325474       13.4994723181        2.6719451664
 Zn         2.7388431644       10.7950994725        2.6710957838
 Zn         2.7387547987       13.5524033288       -0.0339526198
  S         1.4029101136       12.1744367231        1.3184886262
  S         1.3874663052       14.8569960701        4.0253460160
  S         4.0919505529       12.1533076602        4.0238954721
  S         4.1081082870       14.8794510805        1.3183477751
 Zn         0.0335300589       10.7921921153        5.3765270010
 Zn         0.0336382558       13.5087795754        8.0815039580
 Zn         2.7358789871       10.8005017627        8.0822004900
 Zn         2.7394710791       13.4992755956        5.3789234110
  S         1.3803573126       12.1548776983        6.7290532471
  S         1.3790524288       14.8930484277        9.4275431551
  S         4.0756375834       12.1772238922        9.4334525287
  S         4.0818691024       14.8672227751        6.7356154864
 Zn         0.0334818045       10.8482256041       10.7862404423
 Zn         0.0336875761       13.5553929051       13.4904526042
 Zn         2.7385412568       10.8508201242       13.4912191503
 Zn         2.7379892273       13.5553242350       10.7839311279
  S         1.3854894027       12.1993392586       12.1374424892
  S         1.3886883265       14.9026284744       14.8422934261
  S         4.0932883568       12.1984446470       14.8430196388
  S         4.0911812511       14.9057976256       12.1362402744
 Zn         5.4438041249        0.0272992900       -0.0339665352
 Zn         5.4436385732        2.6793730349        2.6716071403
 Zn         8.1486314429       -0.0259532114        2.6713075222
 Zn         8.1488113927        2.7316089466       -0.0334024091
  S         6.8125589603        1.3532643377        1.3185971109
  S         6.7956740011        4.0370926573        4.0216637958
  S         9.5026443293        1.3287860957        4.0216847528
  S         9.5180846476        4.0581807912        1.3184039394
 Zn         5.4426866076       -0.0282229150        5.3787514046
 Zn         5.4479147509        2.7344682663        8.0757806606
 Zn         8.1483810833        0.0184452414        8.0810139956
 Zn         8.1488786195        2.6769081512        5.3736369045
  S         6.7809737978        1.3491087902        6.7287981657
  S         6.8207949824        4.1135056445        9.4063666457
  S         9.4964493376        1.3711666547        9.4337733862
  S         9.4828455546        4.0360601466        6.7299587595
 Zn         5.4452336504        0.0273604591       10.7830852978
 Zn         5.4443186757        2.7358923775       13.4911348508
 Zn         8.1489039117        0.0320029166       13.4888737542
 Zn         8.1543477899        2.7391875124       10.7822217615
  S         6.7967735595        1.3872487154       12.1294299331
  S         6.7981418704        4.0817116563       14.8440733627
  S         9.5026650178        1.3766988925       14.8432362310
  S         9.5012218801        4.0838329687       12.1431578822
 Zn         5.4437601896        5.4369523233       -0.0334554597
 Zn         5.4433866611        8.0892569191        2.6704008414
 Zn         8.1483083064        5.3838071122        2.6708343004
 Zn         8.1485996513        8.1421701251       -0.0339315464
  S         6.8131181723        6.7636808481        1.3181913826
  S         6.7972895195        9.4439949002        4.0252829033
  S         9.5004717528        6.7396272077        4.0248850791
  S         9.5180361883        9.4686499994        1.3191967804
 Zn         5.4427025521        5.3847546328        5.3735750994
 Zn         5.4436451709        8.1354683405        8.0806680435
 Cu         8.1492359360        5.4230852486        8.0680374918
 Zn         8.1449616735        8.0823694980        5.3794562392
  S         6.7630884829        6.7494390155        6.7364398255
  S         6.7861798135        9.4817548961        9.4412421456
  S         9.4789383491        6.7604321857        9.4546325542
  S         9.4974373756        9.4429642971        6.7304002405
 Zn         5.4467990093        5.4465040657       10.7839855683
 Zn         5.4433295705        8.1458004919       13.4922922366
 Zn         8.1489791331        5.4403458084       13.4925030799
 Zn         8.1499937052        8.1435794668       10.7891199811
  S         6.7949910744        6.7903874297       12.1435194236
  S         6.7980199986        9.4930058377       14.8441428747
  S         9.5034985976        6.7873678908       14.8443883571
  S         9.5004478820        9.4956680109       12.1421923938
 Zn         5.4436728715       10.8475954557       -0.0339643560
 Zn         5.4438037877       13.5001244590        2.6714641383
 Zn         8.1487876901       10.7942409266        2.6719085814
 Zn         8.1486307354       13.5525519629       -0.0343188488
  S         6.8131550932       12.1741780660        1.3190815748
  S         6.7971323302       14.8567345543        4.0254609617
  S         9.5023658402       12.1507222323        4.0258568980
  S         9.5178726081       14.8778050761        1.3186845903
 Zn         5.4443819796       10.7946870551        5.3745535508
 Zn         5.4437949568       13.5072615197        8.0811240239
 Zn         8.1510830277       10.7992298750        8.0805953945
 Zn         8.1499123717       13.4994192328        5.3785639862
  S         6.7929708528       12.1533221196        6.7291621824
  S         6.7863608340       14.8900782103        9.4277101102
  S         9.4878135964       12.1779053188        9.4332896596
  S         9.4920140756       14.8671656176        6.7347012048
 Zn         5.4427456594       10.8503224020       10.7883139072
 Zn         5.4435500862       13.5559134923       13.4906868029
 Zn         8.1488118084       10.8507230812       13.4914924195
 Zn         8.1481516084       13.5547775687       10.7837374761
  S         6.7952956600       12.2005046544       12.1392411154
  S         6.7983771589       14.9046606108       14.8411586881
  S         9.5033257947       12.1981255101       14.8438271169
  S         9.5000024669       14.9043872463       12.1372989966
 Zn        10.8536328187        0.0266279198       -0.0339205644
 Zn        10.8532384382        2.6785155676        2.6709958506
 Zn        13.5584754181       -0.0260585874        2.6715406281
 Zn        13.5588302617        2.7315382658       -0.0339660684
  S        12.2232325172        1.3531042963        1.3183001333
  S        12.2059792844        4.0360091471        4.0232386336
  S        14.9129335408        1.3307992592        4.0234202270
  S        14.9281453947        4.0581343748        1.3183105973
 Zn        10.8529725328       -0.0280972807        5.3782864745
 Zn        10.8534193032        2.7245987554        8.0799438386
 Zn        13.5593501452        0.0189997494        8.0813839442
 Zn        13.5576693519        2.6758030442        5.3742289900
  S        12.1942021170        1.3475889422        6.7286168031
  S        12.1977829309        4.0696908807        9.4411447174
  S        14.9082133677        1.3743232043        9.4337256007
  S        14.9023907992        4.0470440438        6.7222615015
 Zn        10.8547644390        0.0276228202       10.7840877975
 Zn        10.8542758868        2.7343952622       13.4917767233
 Zn        13.5590809603        0.0299781424       13.4907270337
 Zn        13.5598313207        2.7323872117       10.7885026141
  S        12.2052898617        1.3777794631       12.1389537151
  S        12.2084751294        4.0814589602       14.8440062291
  S        14.9139931919        1.3767663862       14.8429363387
  S        14.9113011071        4.0836814224       12.1403627095
 Zn        10.8537410024        5.4366246506       -0.0338985582
 Zn        10.8531474719        8.0886876542        2.6716805526
 Zn        13.5582707508        5.3841104370        2.6707939819
 Zn        13.5587563762        8.1420321971       -0.0337440575
  S        12.2226475837        6.7633872610        1.3187307140
  S        12.2071904577        9.4448374899        4.0241654296
  S        14.9114618677        6.7414283357        4.0222193106
  S        14.9277565960        9.4690726548        1.3186874767
 Zn        10.8508967481        5.3790938405        5.3768496141
 Zn        10.8500018729        8.0862138482        8.0849434705
 Zn        13.5585781686        5.3912708167        8.0817779942
 Zn        13.5577747684        8.0860184768        5.3762953034
  S        12.2002406411        6.7407264188        6.7290149503
  S        12.1878518065        9.4670952630        9.4341069422
  S        14.8959676562        6.7664346316        9.4347032576
  S        14.9068814644        9.4465175631        6.7279774370
 Zn        10.8544595299        5.4398093049       10.7899137849
 Zn        10.8539942265        8.1455313563       13.4914783800
 Zn        13.5592465131        5.4400086997       13.4921570518
 Zn        13.5586238053        8.1422801604       10.7872831368
  S        12.2074792731        6.7886112456       12.1431298926
  S        12.2087089657        9.4927716811       14.8442086340
  S        14.9138016352        6.7871004269       14.8445342047
  S        14.9100309678        9.4926672299       12.1391146396
 Zn        10.8537195046       10.8472673077       -0.0338438127
 Zn        10.8537531663       13.4993259632        2.6720852184
 Zn        13.5586828182       10.7944658429        2.6717263563
 Zn        13.5587624015       13.5518914830       -0.0339158415
  S        12.2230096355       12.1736644095        1.3193323737
  S        12.2075124181       14.8559934227        4.0254696172
  S        14.9119626087       12.1515229523        4.0252530174
  S        14.9282242100       14.8784716186        1.3186539828
 Zn        10.8534040047       10.7909658910        5.3772292774
 Zn        10.8542596381       13.5082954898        8.0810324637
 Zn        13.5579782027       10.7955746244        8.0814737132
 Zn        13.5595066331       13.4989094622        5.3790161222
  S        12.2021595497       12.1522843901        6.7296017532
  S        12.1972117969       14.8909021125        9.4280670332
  S        14.8958832287       12.1761702582        9.4325894574
  S        14.9021981051       14.8668958355        6.7349863093
 Zn        10.8535778532       10.8478903725       10.7865339077
 Zn        10.8536797343       13.5552351564       13.4905368442
 Zn        13.5586655981       10.8503312171       13.4908733161
 Zn        13.5581878230       13.5548986811       10.7837834874
  S        12.2055817556       12.1988943051       12.1376718229
  S        12.2084901874       14.9020010540       14.8428666901
  S        14.9134997306       12.1974868826       14.8427931566
  S        14.9111951512       14.9043474982       12.1368398656
