     217
 i =       17, E =     -7771.5662808055
 Cu         8.1445130174        8.1262726668        8.0814377025
 Zn         0.0337786832        0.0271532843       -0.0339751163
 Zn         0.0336532706        2.6788454795        2.6705876859
 Zn         2.7382905190       -0.0254993966        2.6706734354
 Zn         2.7385404462        2.7321263766       -0.0338435299
  S         1.4025943116        1.3531828261        1.3200381531
  S         1.3881300227        4.0376446187        4.0254881551
  S         4.0908075355        1.3352686939        4.0259384354
  S         4.1090656945        4.0597416351        1.3217956945
 Zn         0.0330835493       -0.0277914895        5.3777857059
 Zn         0.0362837751        2.7277541803        8.0822607391
 Zn         2.7330656887        0.0201047802        8.0812160060
 Zn         2.7351581283        2.6760635467        5.3757063810
  S         1.3694396715        1.3503999460        6.7309420206
  S         1.3827234148        4.0807066171        9.4351947606
  S         4.0785361256        1.3634045551        9.4411456110
  S         4.0786615219        4.0432211504        6.7434700204
 Zn         0.0346357689        0.0281029567       10.7847827107
 Zn         0.0338454533        2.7349240412       13.4915918703
 Zn         2.7384247886        0.0309281119       13.4913198490
 Zn         2.7369110845        2.7355196446       10.7880602035
  S         1.3843862827        1.3788703566       12.1379523692
  S         1.3874407418        4.0823386121       14.8438711498
  S         4.0925943282        1.3771136461       14.8440698613
  S         4.0907149213        4.0856637707       12.1387727563
 Zn         0.0337454392        5.4366472267       -0.0336649560
 Zn         0.0337612713        8.0893752059        2.6699674407
 Zn         2.7346848236        5.3833110387        2.6668207179
 Zn         2.7381758322        8.1424383276       -0.0335769978
  S         1.4022292959        6.7639917126        1.3197190178
  S         1.3860417772        9.4461180969        4.0241544482
  S         4.0887118754        6.7490630975        4.0225121352
  S         4.1078068702        9.4681367969        1.3201872132
 Zn         0.0338923487        5.3828835363        5.3724896243
 Zn         0.0335053696        8.0965574843        8.0829717438
 Zn         2.7358240503        5.4283822613        8.0813707638
 Zn         2.7325479146        8.0907880016        5.3737390190
  S         1.3787248884        6.7515984020        6.7248830053
  S         1.3764511084        9.4776888122        9.4277155747
  S         4.0822372444        6.7773037055        9.4423656029
  S         4.0720506478        9.4742246149        6.7197912819
 Zn         0.0340176674        5.4389795918       10.7883529536
 Zn         0.0335846163        8.1455089178       13.4919410605
 Zn         2.7378573096        5.4403844505       13.4920584521
 Zn         2.7299608057        8.1459819477       10.7869068441
  S         1.3845456309        6.7896600729       12.1390509300
  S         1.3869011878        9.4906889786       14.8442027405
  S         4.0926718282        6.7871067065       14.8442054399
  S         4.0867698293        9.4865592389       12.1418825982
 Zn         0.0338587285       10.8480211434       -0.0339776577
 Zn         0.0338887702       13.4996570960        2.6712709188
 Zn         2.7381810197       10.7953475485        2.6702658509
 Zn         2.7385442538       13.5527559444       -0.0337791822
  S         1.4022778375       12.1723243260        1.3202329054
  S         1.3856279940       14.8566011433        4.0258861378
  S         4.0915303221       12.1529228587        4.0248870998
  S         4.1073821867       14.8779367528        1.3198247841
 Zn         0.0331964460       10.7914036330        5.3752948021
 Zn         0.0314052200       13.5127068388        8.0821682667
 Zn         2.7306605194       10.8392462444        8.0826948699
 Zn         2.7381143065       13.5009260104        5.3750947146
  S         1.3742503260       12.1612510154        6.7249890457
  S         1.3739910616       14.8889373373        9.4287258941
  S         4.0827377509       12.1962507088        9.4251883268
  S         4.0735348166       14.8762663814        6.7297206424
 Zn         0.0339702824       10.8477026207       10.7854209622
 Zn         0.0337916050       13.5557458923       13.4906141409
 Zn         2.7345073982       10.8522804552       13.4951467955
 Zn         2.7334786961       13.5600216970       10.7864547706
  S         1.3856564866       12.1958693947       12.1362583530
  S         1.3873182084       14.9005851009       14.8434162096
  S         4.0936957197       12.1945897659       14.8426042347
  S         4.0902643353       14.9005678716       12.1388516714
 Zn         5.4432988970        0.0272966738       -0.0340123904
 Zn         5.4425459840        2.6753610611        2.6668054486
 Zn         8.1496529599       -0.0228157542        2.6674640009
 Zn         8.1488629501        2.7320382015       -0.0341625307
  S         6.8124699773        1.3541814756        1.3185785932
  S         6.8039633145        4.0335082088        4.0218192530
  S         9.5012501184        1.3310621169        4.0233870467
  S         9.5171440551        4.0583450975        1.3197718974
 Zn         5.4394866124       -0.0260994428        5.3739055620
 Zn         5.4396075692        2.6789813669        8.0807489816
 Zn         8.1477076842        0.0227270449        8.0834622742
 Zn         8.1497167667        2.6715441344        5.3720279558
  S         6.7855451600        1.3432336165        6.7240961561
  S         6.7712210098        4.0541520003        9.4429657018
  S         9.4901257132        1.3668053716        9.4418928245
  S         9.5041088145        4.0306137450        6.7211202441
 Zn         5.4434090437        0.0283219770       10.7895808841
 Zn         5.4431055632        2.7350089173       13.4923234156
 Zn         8.1488539972        0.0302667646       13.4926948521
 Zn         8.1471815295        2.7265735551       10.7905846011
  S         6.7936397861        1.3779041104       12.1414658400
  S         6.7969821888        4.0827227638       14.8444121114
  S         9.5008354486        1.3764992480       14.8450032226
  S         9.4906366611        4.0799046580       12.1442283714
 Zn         5.4432881199        5.4370738650       -0.0339834626
 Zn         5.4426374297        8.0904023490        2.6639955498
 Zn         8.1489645908        5.3830653273        2.6632047225
 Zn         8.1488804435        8.1428460662       -0.0333490151
  S         6.8132399057        6.7642852206        1.3214713077
  S         6.7885638620        9.4556984751        4.0209007695
  S         9.5092691208        6.7329073139        4.0198228984
  S         9.5158578105        9.4686713923        1.3230279641
 Zn         5.3789387357        5.3191945081        5.3136470303
 Zn         5.3648762092        8.1388412018        8.0812181239
 Zn         8.1467125153        5.3086779241        8.0801302589
 Zn         8.1483606028        8.0882721161        5.2977192274
  S         6.7768649372        6.7401628940        6.7259135083
  S         6.7820754665        9.5027016197        9.4449175554
  S         9.4972606612        6.7484880559        9.4476811086
  S         9.5071411411        9.4726937679        6.7207186530
 Zn         5.4398412731        5.4350007993       10.7888523814
 Zn         5.4422521153        8.1455597650       13.4989415439
 Zn         8.1486650772        5.4393914148       13.4993839779
 Zn         8.1485880732        8.1444421350       10.8661769539
  S         6.7864331042        6.7806351295       12.1445918054
  S         6.7981831573        9.4909066685       14.8428371088
  S         9.5011462803        6.7880715467       14.8433309326
  S         9.5078837959        9.5018478414       12.1448369191
 Zn         5.4432659766       10.8478637709       -0.0332434107
 Zn         5.4425033218       13.4995172248        2.6685815652
 Zn         8.1495365886       10.7993071518        2.6661905118
 Zn         8.1487088854       13.5528198072       -0.0338606606
  S         6.8122382602       12.1723870095        1.3199462378
  S         6.7898655768       14.8655095167        4.0177479710
  S         9.4873263513       12.1639522928        4.0290083940
  S         9.5159298791       14.8775098158        1.3195047577
 Zn         5.4422175496       10.8051149574        5.3731770864
 Zn         5.4423582859       13.5573781063        8.0805867889
 Zn         8.1507075601       10.9260864354        8.0781813561
 Zn         8.1489813511       13.5470749501        5.3744258196
  S         6.7789630469       12.1873638858        6.7170302731
  S         6.7916428702       14.8979088483        9.4349429167
  S         9.5064271955       12.2026694715        9.4422891546
  S         9.4916806354       14.8829287688        6.7362325758
 Zn         5.3786774067       10.9157510686       10.8513617123
 Zn         5.4425310459       13.5597444066       13.4959492955
 Zn         8.1487951123       10.8521037544       13.4989709543
 Zn         8.1491569053       13.5630121186       10.7880918750
  S         6.8032360349       12.2034009109       12.1426480914
  S         6.7979699711       14.9011879521       14.8451381520
  S         9.5022745803       12.1959731085       14.8443846464
  S         9.4995190535       14.9036923059       12.1407846101
 Zn        10.8544206101        0.0271119604       -0.0341293703
 Zn        10.8546164690        2.6786608948        2.6695004310
 Zn        13.5591593223       -0.0257015409        2.6705681609
 Zn        13.5590267969        2.7317812424       -0.0338544097
  S        12.2213031893        1.3525126644        1.3198823659
  S        12.2049914927        4.0365791760        4.0241762139
  S        14.9109703954        1.3300948405        4.0249730501
  S        14.9265062038        4.0582476254        1.3200242657
 Zn        10.8561660079       -0.0250297894        5.3721184692
 Zn        10.8553134634        2.6770539188        8.0811243959
 Zn        13.5645933262        0.0208908363        8.0815853341
 Zn        13.5600580728        2.6772261932        5.3720447521
  S        12.1980601591        1.3412685788        6.7238053385
  S        12.1930682126        4.0569192835        9.4272691746
  S        14.9079019359        1.3752599187        9.4340111299
  S        14.9006542204        4.0468526446        6.7229532224
 Zn        10.8558250013        0.0269852804       10.7896482130
 Zn        10.8552053540        2.7307720375       13.4960247114
 Zn        13.5592745739        0.0299261269       13.4914047305
 Zn        13.5634234727        2.7291442332       10.7891299525
  S        12.2026004146        1.3803406157       12.1395649659
  S        12.2049107194        4.0830036991       14.8428714539
  S        14.9112696438        1.3766072017       14.8438620550
  S        14.9070429888        4.0851505037       12.1389315452
 Zn        10.8543905518        5.4366926992       -0.0336253898
 Zn        10.8550656644        8.0897774413        2.6636981007
 Zn        13.5594696977        5.3837262271        2.6697589288
 Zn        13.5593327853        8.1423569371       -0.0339508691
  S        12.2211267441        6.7632921958        1.3199859636
  S        12.2082439547        9.4390593856        4.0232530710
  S        14.9102940986        6.7411722632        4.0239090637
  S        14.9263867375        9.4671906771        1.3199282657
 Zn        10.8572315168        5.3775609612        5.3719048657
 Zn        10.9323310495        8.0926410148        8.0813515661
 Zn        13.5643799396        5.3872588235        8.0822281806
 Zn        13.5662113436        8.0869849816        5.3747326400
  S        12.2062269452        6.7340766077        6.7211527373
  S        12.1941489133        9.4769262398        9.4416463320
  S        14.8926918735        6.7662703789        9.4332767852
  S        14.9034004351        9.4470568247        6.7305885307
 Zn        10.9189667937        5.3729349769       10.8512756779
 Zn        10.8552538626        8.1454734343       13.4989088801
 Zn        13.5631115744        5.4389531362       13.4961134624
 Zn        13.5666457573        8.1426850774       10.7876758712
  S        12.2072171985        6.7950999287       12.1435202464
  S        12.2063511037        9.4917657300       14.8442561440
  S        14.9116616365        6.7876962981       14.8449176577
  S        14.9083854014        9.4919956838       12.1384473032
 Zn        10.8541322758       10.8478239045       -0.0340743836
 Zn        10.8542373812       13.5036264914        2.6678480226
 Zn        13.5629469851       10.7963901444        2.6673868299
 Zn        13.5590012585       13.5525216914       -0.0341415052
  S        12.2198139261       12.1711110978        1.3221030294
  S        12.2049760486       14.8531997021        4.0266173050
  S        14.9085502280       12.1492133282        4.0281393761
  S        14.9263858188       14.8764436462        1.3202389878
 Zn        10.9183465234       10.8629148644        5.3121077145
 Zn        10.8592410825       13.5558297999        8.0814504240
 Zn        13.5642206403       10.8017258925        8.0804175231
 Zn        13.5633624630       13.5031539842        5.3778720815
  S        12.1990260846       12.1655974579        6.7440847618
  S        12.2031680384       14.9006496260        9.4350766882
  S        14.8941230159       12.1756765613        9.4337596174
  S        14.9001802845       14.8669970083        6.7362053002
 Zn        10.8575994806       10.8528979701       10.7888450979
 Zn        10.8545008050       13.5559019175       13.4918862635
 Zn        13.5596092924       10.8509170718       13.4912728543
 Zn        13.5601073886       13.5545517061       10.7854611593
  S        12.2033051489       12.1974263970       12.1371836480
  S        12.2062871229       14.9004392277       14.8440158967
  S        14.9113084237       12.1956312721       14.8434995575
  S        14.9087954018       14.9027506666       12.1376204397
