     193
 i =       65, E =     -6852.2416818877
 Zn        -0.3084731504        0.0195213968        0.4258129864
 Zn         2.7441794688        5.7442404590        1.8156035420
 Zn         2.7468408573        1.9283902718        1.8217359880
 Zn         0.0323258714       -0.0201096199        3.8680458210
 Zn         0.0338092274        0.0198371881        7.6547865969
 Zn         0.0368602521       -0.0162238394       15.3211999129
 Zn        -0.3094498836        7.6518757478        0.3768091154
 Zn         5.4412091882       11.4633473149        3.8618752201
 Zn         5.4471411045        3.8435118358       19.2307299178
 Zn         5.4399973835        3.8347357703        3.8618559852
 Zn         5.4608506477       11.4723161456       19.2880738573
 Zn         2.7384800237        5.7452990894        9.5648639908
 Zn         2.7370182643        5.7475968401       17.2264837946
 Zn         2.7420805199       13.3710099477        1.8186323109
 Zn         8.1530446800        1.9264465512        5.7204962310
 Zn         7.8063973940        9.5618976293       20.6771276179
 Zn         8.1528001570        9.5573151295        5.7233633159
 Zn         7.8037730378        1.9364184293       20.6255639934
 Zn         2.7375628285        1.9282844695        9.5637706275
 Zn         2.7348018367        1.9347804123       17.1782857546
 Zn         2.7441351569        9.5566220602        1.8155552508
 Zn         8.1534903309       13.3751706458        5.7279403056
 Zn         7.8090614132        5.7471061125       20.6238096848
 Zn         8.1528069133        5.7445284491        5.7223648223
 Zn         7.8058433786       13.4209442772       20.6242561898
 Zn         0.0351314227        0.0197649396       11.4848476999
 Zn         0.0338130655        0.0302606350       19.2216968511
 Zn         0.0309193400        7.6502486754        3.8604451117
 Zn         5.4411662723       11.4683713255        7.6545998852
 Zn         5.1004545689        3.8326402559        0.3794882254
 Zn         5.4419973005        3.8384531537        7.6532624205
 Zn         5.1005915912       11.4632174944        0.3797671586
 Zn         0.0319289454        7.6517362546        7.6537091549
 Zn         0.0366021993        7.6517880586       15.3315367241
 Zn         2.7401464554       13.3774909990        9.5646080092
 Zn         2.7408167202       13.4179549746       17.1806178309
 Zn         2.7382233859        9.5582381373        9.5632985809
 Zn         2.7386206304        9.5558070774       17.1883086604
 Zn         0.0332731752        7.6519641616       11.4862048295
 Zn         0.0939503695        7.6539873613       19.2922148740
 Zn         5.1014966877       -0.0196500987        0.4257335782
 Zn         0.0300953138        3.8343561743        3.8612299785
 Zn         0.0272841009       11.4695596822       19.1651654733
 Zn         0.0311340981       11.4630319520        3.8624349644
 Zn         0.0345278014        3.8410952823       19.2291598180
 Zn         8.1540996289        5.7445242526        1.8156467382
 Zn         2.7427942155        9.5573170224        5.7228709919
 Zn         2.3958446464        1.9379603168       20.6218012962
 Zn         2.7431586856        1.9264812943        5.7207407843
 Cu         2.7381007946        8.7377429228       20.4427533844
 Zn         8.1533302427        1.9293883177        1.8219351100
 Zn         2.7426145784        5.7445612283        5.7227214112
 Zn         2.3998729981       13.5096436366       20.6177869576
 Zn         2.7433349174       13.3751790866        5.7277359192
 Zn         2.3339688517        5.7204128130       20.6931701957
 Zn         5.4423172245       -0.0193892639        3.8680851602
 Zn         0.0320597160        3.8385201735        7.6530857269
 Zn        -0.3096806716       11.4683619351        0.3789736968
 Zn         0.0310819126       11.4684399331        7.6544902432
 Zn        -0.3092535411        3.8378717597        0.3804250124
 Zn         5.4437848338        0.0199567553        7.6547367822
 Zn         5.4499917871        0.0209806244       15.3216600996
 Zn         5.1005079461        7.6496096898        0.3767389588
 Zn         8.1482868591        5.7452122890        9.5632908999
 Zn         8.1502557754        5.7435378009       17.1815392939
 Zn         8.1555341621       13.3719488962        1.8184680481
 Zn         8.1476702041        1.9283549018        9.5638903788
 Zn         8.1433666285        1.9298310309       17.1756668968
 Zn         8.1542669643        9.5569227988        1.8155547922
 Zn         5.4452955250        0.0195343020       11.4846796927
 Zn         5.4535094882        0.0252086992       19.2242339167
 Zn         5.4409226407        7.6503195792        3.8603643438
 Zn         5.4420053602        7.6518280474        7.6535183771
 Zn         5.4463762504        7.6516815134       15.3266435637
 Zn         0.0322862195       11.4686954277       11.4850750260
 Zn         0.0334724991        3.8391271547       11.4847353762
 Zn         8.1500052410       13.3777905306        9.5641875447
 Zn         8.1410420293       13.3748754049       17.1799745283
 Zn         2.7351081559        1.9279383102       13.3939589545
 Zn         2.7374306532        9.5575316274       13.3925614927
 Zn         8.1484147974        9.5581422432        9.5652106290
 Zn         8.1467862026        9.5572780784       17.2300627859
 Zn         2.7397924656       13.3757818564       13.3944663709
 Zn         2.7376705905        5.7460125250       13.4013377391
 Zn         5.4434864906        7.6520855998       11.4852767963
 Zn         5.4568464934        7.6516870181       19.2234449642
 Zn         0.0366885893       11.4623987760       15.3253051749
 Zn         0.0380479930        3.8358597899       15.3248139513
 Zn         5.4429687147        3.8391068667       11.4851957179
 Zn         5.4428365021       11.4682534913       11.4859067001
 Zn         8.1480894307        9.5578888993       13.4018661638
 Zn         8.1477459069        1.9285568143       13.3960709423
 Zn         8.1467611787        5.7453597572       13.3938349931
 Zn         8.1468347567       13.3758916037       13.3912320247
 Zn         5.4450153304        3.8427789514       15.3248728704
 Zn         5.4484671686       11.4658078772       15.3325688664
  S         1.4012092936       -0.0001005648        1.9458669630
  S         1.2767991709        0.0571406046       21.1837121437
  S         9.4359505841       13.3981175033       -0.1169387042
  S         9.4212621190        1.9205781875       -0.1242682847
  S         4.0735734950        5.7422790151        3.7976570238
  S         4.0051529932        5.7396408050       -0.1379639610
  S         1.3850115037        3.8339531857        1.9280690891
  S         1.3821427205        7.6503313780        1.9260600239
  S         4.0855501939        1.9120327921        3.8031623812
  S         4.0250081186        1.9028712390       -0.1160466724
  S         1.3971653752        0.0000450651        5.7542225081
  S         9.4867715023       13.3750708496        3.8034929927
  S         9.4946528747        1.9112449763        3.8010323878
  S         1.3897782262        0.0044815100        9.5702802285
  S         1.3900378137        0.0005303057       13.4027606718
  S         9.4144495416        5.7439288379       -0.1383887758
  S         9.4147641298        9.5615045434       -0.1381946314
  S         6.7983919588       11.4676012579        5.7510598206
  S         4.0686167602        5.7397641354       19.1596245226
  S         6.7764660149        3.8358510217       17.2470517149
  S         4.0735736576        9.5571054080        3.7972887105
  S         6.7987676787        3.8344948310        5.7501207384
  S         4.1443678185        9.5773120927       19.0593202616
  S         6.7768390118       11.4732749672       17.2706937835
  S         4.0842223031        5.7456615978       11.4829563482
  S         4.0838344126        5.7466599173       15.3149095938
  S         1.3835180620       11.4646578367        1.9292541037
  S         9.4968579705        1.9263615685        7.6465225100
  S         6.7533397428       11.4996613985       21.2037013819
  S         9.5199135283        9.5574739522       19.1465531738
  S         6.8071811407       -0.0000389006        5.7541983021
  S         9.4953112970        9.5605004946        7.6474275398
  S         6.7200847428        0.0229501958       21.1670712653
  S         9.4992571700        1.9289007537       19.0957720298
  S         4.0875824050        1.9261008185       11.4795166343
  S         4.0950870007        1.9264073620       15.2939736493
  S         9.5050099378       13.3913955646        7.6486121948
  S         6.7173702605        7.6497033483       21.1754062209
  S         9.5099912208        5.7526783928       19.0983010416
  S         9.4948534075        5.7449710078        7.6456287206
  S         6.7964961505        7.6509188558        5.7493526148
  S         9.5130510340       13.4044283472       19.1011999926
  S         1.3739770529        0.0151236788       17.2484018332
  S         9.4840406705        5.7419120952        3.7972227732
  S         9.4832526107        9.5567724461        3.7978238017
  S         6.7931826385       11.4699745679        9.5701577442
  S         6.7190934156        3.8399091982       21.1700203047
  S         4.0854532702        9.5605590097        7.6457864840
  S         6.7906010545        3.8362050492        9.5692386498
  S         4.0039774581        9.5572381847       -0.1386782848
  S         4.0846469208        5.7450684879        7.6468237465
  S         1.3797514513        7.6520950999        9.5695747639
  S         1.3778305771        7.6527689340       13.4054870480
  S         9.5052609860        5.7405030397       15.2912746453
  S         9.4956595079        9.5606914145       15.3182020710
  S         4.0953197349       13.3914474393       11.4805257865
  S         4.1037458135       13.3941785427       15.2991362615
  S         1.3890849502       11.4861769854       17.2462422412
  S         1.3826789085       11.4700393024        9.5698806874
  S         4.0860767916        9.5609867119       11.4767944813
  S         4.0919641441        9.5620969439       15.2890746989
  S         1.3657140080        7.6542599604       17.2627254387
  S         9.4951436185        9.5612923966       11.4836372703
  S         9.4951740535        5.7450995326       11.4776875026
  S         6.8111521106       -0.0039814683        1.9458453014
  S         4.0120899862       13.3804564871       -0.1253815718
  S         1.3885184803        3.8343563590        5.7495638382
  S         1.3886460014       11.4674411757        5.7513936452
  S         1.3695214531        3.8363366696       17.2504809037
  S         6.7942876148        3.8354882653        1.9295273561
  S         6.7921313856        7.6507011085        1.9259580571
  S         4.0953059400        1.9254872829       19.1023162659
  S         4.0868493232        1.9263746614        7.6468831247
  S         1.1958836270       11.6656620033       21.2106594166
  S         1.3863443848        7.6510765177        5.7495530410
  S         4.0991194451       13.3976297444       19.1235773580
  S         4.0949393210       13.3913184946        7.6484710476
  S         1.1922274683        7.5591004995       21.3229485452
  S         4.0758339434       13.3758729487        3.8014393470
  S         1.3812274087        3.8362323664        9.5686151378
  S         1.2707407848        3.7939734537       21.1879814234
  S         6.7997371206        0.0046230998        9.5698922397
  S         6.8005606240        0.0042697567       13.4008863649
  S         6.7941409120       11.4661556127        1.9278124554
  S         9.4980785189        1.9269176747       11.4792265351
  S         9.5124067749        1.9131702586       15.2944658894
  S         6.7865774540        0.0037576311       17.2445413598
  S         6.7900886250        7.6519480869        9.5687464421
  S         6.7894931845        7.6516706228       13.4020027903
  S         1.3814438787       11.4698494469       13.4039048958
  S         1.3817652741        3.8353008291       13.4009766100
  S         9.5049190431       13.3922191114       11.4796983517
  S         9.5051799415       13.3784603769       15.2968012916
  S         6.7887251913        7.6430349261       17.2432224839
  S         6.7901024490        3.8354813758       13.4024353825
  S         6.7911957171       11.4696912195       13.4061863307
  H         2.1135047198       10.7069179201       20.9251484937
