     193
 i =       62, E =     -6778.1578174867
 Zn        -0.3563082161        0.0333857713        0.3826134989
 Zn         2.8796703843        6.0447974388        1.8551586984
 Zn         2.8796720908        2.0371847896        1.8551826311
 Zn         0.0255313022        0.0333461947        4.0125656020
 Zn         0.0247128909        0.0332942671        8.0041692553
 Zn         0.0344189295        0.0323844687       16.0488723127
 Zn        -0.3562579968        8.0486347538        0.3826766441
 Zn         5.6930791272       12.0562226023        4.0126110877
 Zn         5.7009424840        4.0304726570       20.1607534731
 Zn         5.6930819961        4.0410116801        4.0125553085
 Zn         5.7661432520       12.0602417439       20.2285362432
 Zn         2.8663863036        6.0448650596       10.0178737269
 Zn         2.8491709559        6.0456239306       17.9997840566
 Zn         2.8796491404       14.0599775735        1.8551611747
 Zn         8.5368684127        2.0371577484        5.9736551368
 Cu         8.4963131585       10.9141317805       21.4027167956
 Zn         8.5367637799       10.0524101506        5.9734354727
 Zn         8.1431689040        2.0350799531       21.5868576280
 Zn         2.8662849623        2.0370950215       10.0180990951
 Zn         2.8511428812        2.0357340607       18.0062070243
 Zn         2.8796374951       10.0524045377        1.8551932087
 Zn         8.5369631712       14.0599317636        5.9737125335
 Zn         8.1523359529        5.9166342789       21.5847367340
 Zn         8.5368899751        6.0448401352        5.9738229305
 Zn         8.0905531269       14.1185596473       21.6526646423
 Zn         0.0324183022        0.0333541413       12.0050179461
 Zn         0.0412263556        0.0286792885       20.1663871559
 Zn         0.0254814857        8.0486725362        4.0126352545
 Zn         5.6924299269       12.0562949232        8.0042785719
 Zn         5.3113247773        4.0410015668        0.3826481092
 Zn         5.6923583905        4.0409678442        8.0042789485
 Zn         5.3113145740       12.0561930320        0.3826411138
 Zn         0.0248124822        8.0486894965        8.0043846382
 Zn         0.0373139596        8.0513080887       16.0529517853
 Zn         2.8663858332       14.0599661891       10.0172565868
 Zn         2.8700118274       14.0639204999       18.0033368320
 Zn         2.8663588700       10.0524209842       10.0178631636
 Zn         2.8601351788       10.0559115480       18.0094069123
 Zn         0.0327959536        8.0489622936       12.0066144735
 Zn         0.0791972688        8.0483673584       20.2246170176
 Zn         5.3112899036        0.0333691325        0.3825839400
 Zn         0.0254996543        4.0409865984        4.0125820334
 Zn         0.0546790629       12.0579383158       20.1560904105
 Zn         0.0255171385       12.0561480022        4.0124900588
 Zn         0.0539629888        4.0395717337       20.1653096214
 Zn         8.5472476613        6.0448211468        1.8551944400
 Zn         2.8693445259       10.0524263671        5.9736731442
 Zn         2.4735080475        2.0349375869       21.6387455985
 Zn         2.8693192644        2.0371492616        5.9737635758
 Zn         2.4813678059       10.0567971275       21.5935803037
 Zn         8.5472701126        2.0371729439        1.8551844813
 Zn         2.8692364050        6.0448083323        5.9737228965
 Zn         2.4792142271       14.0611617607       21.5886672496
 Zn         2.8692817293       14.0599529174        5.9735550437
 Zn         2.4734167478        6.0426315023       21.5956666610
 Zn         5.6931301610        0.0333454039        4.0125394000
 Zn         0.0247327165        4.0409870974        8.0041735375
 Zn        -0.3562871802       12.0561595096        0.3825713241
 Zn         0.0248409486       12.0561763328        8.0039488619
 Zn        -0.3562935103        4.0409989717        0.3826713276
 Zn         5.6925100012        0.0333551252        8.0041156853
 Zn         5.7064233903        0.0343946922       16.0486008611
 Zn         5.3113322186        8.0486087452        0.3826689105
 Zn         8.5341992445        6.0448705412       10.0184455504
 Zn         8.5300834141        6.0433797863       18.0061865816
 Zn         8.5472348296       14.0599577991        1.8551911512
 Zn         8.5339525008        2.0371744402       10.0177643357
 Zn         8.5241158817        2.0359342715       18.0046694009
 Zn         8.5472916567       10.0524085952        1.8551460014
 Zn         5.7000176798        0.0332706498       12.0046862342
 Zn         5.7013601192        0.0359489457       20.1650693332
 Zn         5.6930792288        8.0486033134        4.0125988110
 Zn         5.6922628130        8.0485657855        8.0041548929
 Zn         5.7024181861        8.0491392998       16.0473143152
 Zn         0.0331452440       12.0560931864       12.0044265332
 Zn         0.0325624830        4.0409256714       12.0048894419
 Zn         8.5339202760       14.0599029308       10.0182237615
 Zn         8.5296483604       14.0589041083       18.0158988704
 Zn         2.8581178487        2.0369251033       14.0189628245
 Zn         2.8590311524       10.0528237378       14.0189922274
 Zn         8.5338908629       10.0524287872       10.0165687581
 Zn         8.5386503120       10.0617463831       18.0092775800
 Zn         2.8595633533       14.0602221892       14.0175680724
 Zn         2.8583743450        6.0447675981       14.0180320825
 Zn         5.6999155455        8.0486903391       12.0050276095
 Zn         5.6861595325        8.0474391128       20.0976477978
 Zn         0.0372585328       12.0564529915       16.0483127591
 Zn         0.0320936725        4.0400878024       16.0470760211
 Zn         5.6997255465        4.0409409036       12.0052655576
 Zn         5.7003513594       12.0563445204       12.0059204861
 Zn         8.5272806568       10.0528121246       14.0159479166
 Zn         8.5253952309        2.0371941553       14.0175956962
 Zn         8.5250180320        6.0450418442       14.0186531776
 Zn         8.5268628947       14.0597720161       14.0198342897
 Zn         5.7010357137        4.0405332685       16.0493401191
 Zn         5.7070648782       12.0573085420       16.0532431782
 Se         1.4438680123        0.0334522101        1.9840158317
 Se         1.3304170549        0.0277982920       22.2358239681
 Se         9.8281342135       14.0599814790       -0.2224480136
 Se         9.8280829787        2.0372119317       -0.2224420291
 Se         4.2584368505        6.0447404012        3.9449031974
 Se         4.1605341059        6.0447960106       -0.2224690796
 Se         1.4438826456        4.0409849331        1.9841491155
 Se         1.4438776496        8.0485334866        1.9841720271
 Se         4.2584878762        2.0372235216        3.9449076518
 Se         4.1604913778        2.0372141456       -0.2224684370
 Se         1.4454729113        0.0334685942        6.0014362617
 Se         9.9261474031       14.0600091901        3.9448395758
 Se         9.9261116720        2.0372255032        3.9448356171
 Se         1.4469462265        0.0335689109       10.0065453486
 Se         1.4385191308        0.0337298061       14.0261777748
 Se         9.8281417220        6.0448111587       -0.2224133370
 Se         9.8281623774       10.0523657562       -0.2225553847
 Se         7.1130579298       12.0561982342        6.0014813856
 Se         4.2787600752        6.0358016155       20.0170187857
 Se         7.0933622196        4.0434478943       18.0816515064
 Se         4.2585455116       10.0523352520        3.9448334315
 Se         7.1130638212        4.0410160200        6.0016313718
 Se         4.3026172883       10.0647899613       20.0295136874
 Se         7.0929888562       12.0569790170       18.0881868612
 Se         4.2808830450        6.0446997523       12.0163159234
 Se         4.2797039294        6.0451669814       16.0208496638
 Se         1.4438802853       12.0562002643        1.9839042367
 Se         9.9402993221        2.0373497744        7.9963979667
 Se         6.9017871699       12.1829454435       22.3656146872
 Se        10.0128346383       10.0394706447       19.9670098158
 Se         7.1131588181        0.0334587449        6.0013208325
 Se         9.9403617951       10.0522672429        7.9953892898
 Se         6.9608880209        0.0945436603       22.2481176737
 Se         9.9540495570        2.0434591268       20.0218259205
 Se         4.2806455663        2.0374428612       12.0166703449
 Se         4.2787044961        2.0380612593       16.0218790237
 Se         9.9401840525       14.0599647497        7.9965752683
 Se         6.9283865241        7.8900318304       22.2343681859
 Se         9.9581583701        6.0486367414       20.0363661954
 Se         9.9402565118        6.0447740376        7.9970145740
 Se         7.1130059869        8.0484757902        6.0015614324
 Se         9.9241981811       14.0674470368       20.0605401179
 Se         1.4213084266        0.0326177813       18.0757608475
 Se         9.9261217883        6.0447592596        3.9449842720
 Se         9.9260560666       10.0523559875        3.9446455878
 Se         7.1145162525       12.0560458302       10.0069111968
 Se         6.9611778734        3.9979277089       22.2505132853
 Se         4.2727871398       10.0522574947        7.9965125579
 Se         7.1146460184        4.0411736657       10.0073919966
 Se         4.1605858924       10.0523753059       -0.2224289069
 Se         4.2726688835        6.0446781379        7.9965646716
 Se         1.4469399999        8.0482981186       10.0076804655
 Se         1.4400626452        8.0477828341       14.0296908698
 Se         9.9484534822        6.0461976856       16.0215556205
 Se         9.9495002590       10.0522581431       16.0076120043
 Se         4.2813330871       14.0601979465       12.0142254621
 Se         4.2858773106       14.0632173390       16.0122668034
 Se         1.4394817729       12.0695562990       18.0645043084
 Se         1.4472988500       12.0561491597       10.0055987215
 Se         4.2809268924       10.0520933110       12.0164317293
 Se         4.2816689305       10.0517493053       16.0212724703
 Se         1.4242984802        8.0480154512       18.0931842371
 Se         9.9489720267       10.0520490592       12.0125680873
 Se         9.9485329534        6.0449306704       12.0177434341
 Se         7.1114702455        0.0334499248        1.9839918027
 Se         4.1605317174       14.0599785428       -0.2224874084
 Se         1.4454493742        4.0409920995        6.0015722694
 Se         1.4455704493       12.0561748144        6.0011922332
 Se         1.4213241510        4.0425180074       18.0735613399
 Se         7.1115180739        4.0409935383        1.9841223802
 Se         7.1114904958        8.0485342790        1.9841074186
 Se         4.2644016503        2.0389518016       20.0290073108
 Se         4.2726749415        2.0373133104        7.9967118812
 Se         1.3424793619       12.0578301706       22.2240298720
 Se         1.4454840215        8.0485029195        6.0017466100
 Se         4.2895585503       14.0567096246       20.0142291470
 Se         4.2727964444       14.0601469588        7.9957930056
 Se         1.3707139483        8.0479539398       22.2727153862
 Se         4.2584945702       14.0600452598        3.9446831897
 Se         1.4470718155        4.0411683821       10.0068145877
 Se         1.3314826278        4.0473086099       22.2399145751
 Se         7.1148093059        0.0336743633       10.0063804129
 Se         7.1077107881        0.0343099512       14.0246251940
 Se         7.1114479568       12.0561993166        1.9840629552
 Se         9.9485264125        2.0377755656       12.0158666231
 Se         9.9454973122        2.0377502271       16.0184829838
 Se         7.0922143597        0.0364024522       18.0786555973
 Se         7.1144964956        8.0483112698       10.0069214581
 Se         7.1065625602        8.0484110624       14.0265635102
 Se         1.4404639850       12.0567884072       14.0235655280
 Se         1.4386029458        4.0414322603       14.0270043745
 Se         9.9485529814       14.0598837590       12.0164935878
 Se         9.9461147845       14.0601271628       16.0231700944
 Se         7.1063838637        8.0504184823       18.0712262798
 Se         7.1058918548        4.0415258178       14.0283714158
 Se         7.1070404676       12.0557096448       14.0270882357
  H         7.9228182692        8.9189411976       21.8278760921
