     216
 i =        2, E =     -7639.6792360834
 Zn         0.0004582936        0.0005108072        0.0000802736
 Zn        -0.0007677772        2.8292763352        2.8292698481
 Zn         2.8292701461       -0.0002326208        2.8293162780
 Zn         2.8292811455        2.8292432970       -0.0006143836
 Se         1.4153347390        1.4154387830        1.4152976526
 Se         1.4149312836        4.2505572704        4.2506415285
 Se         4.2508014068        1.4148642896        4.2507520762
 Se         4.2506760907        4.2506825732        1.4148555257
 Zn         0.0001815851        0.0002582341        5.6717823850
 Zn         0.0000831779        2.8297451246        8.5017537716
 Zn         2.8296108473       -0.0002060134        8.5011722590
 Zn         2.8300999092        2.8300369993        5.6714381514
 Se         1.4154431546        1.4155675052        7.0860851384
 Se         1.4153679938        4.2506458537        9.9168863658
 Se         4.2505895267        1.4152500160        9.9165571480
 Se         4.2506932354        4.2507153099        7.0866530235
 Zn        -0.0002127669       -0.0000676128       11.3310789924
 Zn         0.0007183580        2.8292372432       14.1735137329
 Zn         2.8292912435        0.0004939435       14.1735415107
 Zn         2.8299083671        2.8297466525       11.3311389134
 Se         1.4153548277        1.4152411490       12.7519796847
 Se         1.4154546835        4.2507739906       15.5874073074
 Se         4.2508612032        1.4153739142       15.5874565092
 Se         4.2507077220        4.2507299516       12.7520642626
 Zn         0.0002454415        5.6716952595       -0.0002128884
 Zn         0.0001932783        8.5005612085        2.8297988483
 Zn         2.8300147422        5.6713021199        2.8301372897
 Zn         2.8296331012        8.5014089033        0.0000090856
 Se         1.4155655042        7.0858094971        1.4153125255
 Se         1.4151538908        9.9166830752        4.2506438358
 Se         4.2506356253        7.0864848722        4.2507318448
 Se         4.2506443282        9.9167390693        1.4152606074
 Zn         0.0003120574        5.6721296216        5.6722945942
 Zn         0.0001225848        8.5011482163        8.5015008342
 Zn         2.8292802663        5.6721697471        8.5021267145
 Zn         2.8292133181        8.5018940611        5.6722052404
 Se         1.4154345317        7.0862501105        7.0863705251
 Se         1.4151077033        9.9166057735        9.9166231815
 Se         4.2508134389        7.0861834367        9.9168045559
 Se         4.2507560823        9.9167605745        7.0861190729
 Zn         0.0003978776        5.6721541005       11.3306343757
 Zn         0.0001979657        8.5012802938       14.1731761413
 Zn         2.8298590119        5.6716374756       14.1728798334
 Zn         2.8292466095        8.5012357734       11.3305654472
 Se         1.4153802763        7.0861250096       12.7521495250
 Se         1.4152868070        9.9169272165       15.5875853705
 Se         4.2506104787        7.0860744146       15.5875356551
 Se         4.2507660492        9.9162776595       12.7522045232
 Zn        -0.0004183869       11.3309600371        0.0007334677
 Zn         0.0002989399       14.1736835302        2.8292300606
 Zn         2.8298335687       11.3311792804        2.8299758025
 Zn         2.8292273570       14.1736189356        0.0007839385
 Se         1.4153148609       12.7520221472        1.4154264719
 Se         1.4153652310       15.5875302348        4.2507813430
 Se         4.2508513671       12.7521003455        4.2507181238
 Se         4.2508926299       15.5876125679        1.4153396726
 Zn        -0.0000925077       11.3305872055        5.6722352673
 Zn         0.0001069793       14.1732486670        8.5010784093
 Zn         2.8291858800       11.3306113492        8.5010803631
 Zn         2.8298727959       14.1729418670        5.6716005998
 Se         1.4152899206       12.7521057151        7.0860272760
 Se         1.4153733654       15.5874197638        9.9168597902
 Se         4.2506119310       12.7520733969        9.9163743623
 Se         4.2506790638       15.5873724851        7.0861876215
 Zn        -0.0007490488       11.3305860934       11.3305755666
 Zn        -0.0000220554       14.1735853221       14.1735878478
 Zn         2.8299483075       11.3313887752       14.1727422171
 Zn         2.8300314383       14.1728171263       11.3314093659
 Se         1.4148658288       12.7520432208       12.7520186566
 Se         1.4153245977       15.5877402948       15.5877348264
 Se         4.2505374197       12.7522628591       15.5878491777
 Se         4.2507762125       15.5879963511       12.7520885954
 Zn         5.6718212385        0.0002994080        0.0000939335
 Zn         5.6714213880        2.8300855131        2.8301181380
 Zn         8.5013449168        0.0006064949        2.8296335622
 Zn         8.5016802677        2.8297554689       -0.0001942891
 Se         7.0860087690        1.4157114194        1.4152877855
 Se         7.0864034679        4.2506495862        4.2508898771
 Se         9.9168109594        1.4153787500        4.2506116282
 Se         9.9166620112        4.2508090166        1.4152822223
 Zn         5.6722618404       -0.0006083983        5.6722587088
 Zn         5.6722902820        2.8291100482        8.5016076128
 Zn         8.5018322883       -0.0004577591        8.5011772632
 Zn         8.5019823360        2.8291840379        5.6722498573
 Se         7.0863841371        1.4149894036        7.0862205877
 Se         7.0860187368        4.2507097331        9.9166733501
 Se         9.9164160079        1.4151427241        9.9165988394
 Se         9.9166628522        4.2507734228        7.0862274613
 Zn         5.6722043427        0.0006377059       11.3305345613
 Zn         5.6716180210        2.8299201682       14.1729257862
 Zn         8.5013156702        0.0003430452       14.1730923031
 Zn         8.5007526770        2.8292019033       11.3305475303
 Se         7.0860042386        1.4154044804       12.7522150829
 Se         7.0860555147        4.2506553520       15.5875310569
 Se         9.9168543948        1.4154802523       15.5873209015
 Se         9.9161954941        4.2506771744       12.7520612763
 Zn         5.6721763138        5.6721740783       -0.0003207477
 Zn         5.6721566943        8.5016128526        2.8292728904
 Zn         8.5011855659        5.6721199231        2.8293054997
 Zn         8.5012495258        8.5014488472       -0.0002258573
 Se         7.0861560739        7.0862875021        1.4150492942
 Se         7.0861456035        9.9165434268        4.2507930504
 Se         9.9166260508        7.0859000608        4.2507402762
 Se         9.9165702393        9.9165204013        1.4150755598
 Zn         5.6713635315        5.6714090660        5.6715390459
 Zn         5.6716980472        8.5015915565        8.5014817338
 Zn         8.5011600160        5.6717270987        8.5014450587
 Zn         8.5017238641        8.5012817435        5.6718293888
 Se         7.0859321589        7.0861070267        7.0860633263
 Se         7.0858088925        9.9168907790        9.9169112120
 Se         9.9166976319        7.0859604778        9.9168658839
 Se         9.9167952753        9.9168933400        7.0861718987
 Zn         5.6716314515        5.6715625867       11.3311133344
 Zn         5.6722015043        8.5006567177       14.1734744176
 Zn         8.5007806415        5.6721265604       14.1735027658
 Zn         8.5012666342        8.5016644819       11.3309623123
 Se         7.0861542041        7.0860811553       12.7519135161
 Se         7.0860571347        9.9164861763       15.5875146678
 Se         9.9164181029        7.0861745477       15.5875474504
 Se         9.9166307942        9.9166862730       12.7521339307
 Zn         5.6720868007       11.3306690332       -0.0001106737
 Zn         5.6717361741       14.1729572236        2.8298356828
 Zn         8.5009108100       11.3305949652        2.8292046227
 Zn         8.5012694597       14.1731873477       -0.0007677443
 Se         7.0861043928       12.7521692601        1.4150148279
 Se         7.0861943097       15.5876194893        4.2505241605
 Se         9.9162502584       12.7520963126        4.2506821896
 Se         9.9165643403       15.5873937639        1.4153281646
 Zn         5.6717039786       11.3311978351        5.6716418956
 Zn         5.6722216725       14.1735742096        8.5015078010
 Zn         8.5012652911       11.3310699365        8.5017817139
 Zn         8.5009028892       14.1735781501        5.6721884171
 Se         7.0860846458       12.7520781071        7.0862715136
 Se         7.0862952530       15.5877561868        9.9166500930
 Se         9.9166524775       12.7520321156        9.9168285970
 Se         9.9167877053       15.5874528295        7.0861070454
 Zn         5.6713251281       11.3314951952       11.3314406254
 Zn         5.6714000987       14.1728184981       14.1727383731
 Zn         8.5012182266       11.3306268403       14.1734677140
 Zn         8.5018112600       14.1736913250       11.3305896260
 Se         7.0864613945       12.7522395910       12.7520353603
 Se         7.0858704184       15.5876408159       15.5872734236
 Se         9.9166296335       12.7521245985       15.5872031342
 Se         9.9166497050       15.5876287031       12.7522393784
 Zn        11.3309552044        0.0001137053        0.0000994578
 Zn        11.3312665888        2.8299031084        2.8297885536
 Zn        14.1735648279        0.0004019954        2.8291613429
 Zn        14.1735649831        2.8292264351       -0.0001553316
 Se        12.7520920843        1.4154022780        1.4151601798
 Se        12.7521181724        4.2507091819        4.2507027776
 Se        15.5874614505        1.4152722979        4.2507739480
 Se        15.5874878364        4.2508075795        1.4150888065
 Zn        11.3307048624        0.0004594134        5.6721721099
 Zn        11.3305547633        2.8292041928        8.5012460676
 Zn        14.1730872620        0.0005668484        8.5016293127
 Zn        14.1729686152        2.8298968433        5.6716102462
 Se        12.7521299146        1.4154363422        7.0861491611
 Se        12.7521221822        4.2506446945        9.9163536826
 Se        15.5874774171        1.4155217184        9.9170047152
 Se        15.5876672984        4.2506805080        7.0861670877
 Zn        11.3305535748       -0.0001952379       11.3306089399
 Zn        11.3314059474        2.8300411751       14.1726716025
 Zn        14.1735673491       -0.0002889180       14.1735819823
 Zn        14.1727278766        2.8300345163       11.3314492268
 Se        12.7521350139        1.4148893460       12.7521393589
 Se        12.7521048948        4.2506820621       15.5877366168
 Se        15.5878318714        1.4152069390       15.5875084539
 Se        15.5879982948        4.2506586521       12.7521698474
 Zn        11.3306561496        5.6721534761       -0.0001226683
 Zn        11.3306209370        8.5006928936        2.8292457663
 Zn        14.1729323028        5.6715459579        2.8298379345
 Zn        14.1731318785        8.5015104225       -0.0002773295
 Se        12.7522091095        7.0860735679        1.4151089930
 Se        12.7520419487        9.9162177339        4.2507592334
 Se        15.5875917541        7.0858576374        4.2508060672
 Se        15.5873501698        9.9165014254        1.4157203643
 Zn        11.3312266761        5.6714755729        5.6716385543
 Zn        11.3310148287        8.5012063604        8.5014469461
 Zn        14.1735481091        5.6720830649        8.5011746658
 Zn        14.1735546504        8.5007886069        5.6722292763
 Se        12.7520145531        7.0860076472        7.0861914998
 Se        12.7520186670        9.9165284158        9.9168460006
 Se        15.5877330699        7.0860866938        9.9165740113
 Se        15.5875756081        9.9164438723        7.0864286321
 Zn        11.3313849194        5.6713040529       11.3313282172
 Zn        11.3306026736        8.5013474579       14.1735071267
 Zn        14.1727943711        5.6713486160       14.1727407788
 Zn        14.1735838934        8.5012484521       11.3305527314
 Se        12.7521166628        7.0863592561       12.7520869899
 Se        12.7521316021        9.9166585349       15.5873126259
 Se        15.5874493827        7.0859263313       15.5873680506
 Se        15.5874808941        9.9164890601       12.7521641719
 Zn        11.3305716675       11.3306214779       -0.0007396459
 Zn        11.3313986970       14.1728318586        2.8299778374
 Zn        14.1726653276       11.3314151736        2.8300705586
 Zn        14.1735845673       14.1736185304       -0.0010914320
 Se        12.7521401634       12.7521665748        1.4146362869
 Se        12.7521309648       15.5879425618        4.2506483416
 Se        15.5878535088       12.7521922455        4.2506482686
 Se        15.5877075106       15.5876974953        1.4148730583
 Zn        11.3314558083       11.3314910460        5.6714887842
 Zn        11.3306527570       14.1736113831        8.5021551054
 Zn        14.1735696708       11.3305702863        8.5022587364
 Zn        14.1727473772       14.1728673921        5.6714361578
 Se        12.7521918576       12.7521317319        7.0867271886
 Se        12.7521855712       15.5876788297        9.9167861531
 Se        15.5876005868       12.7523220020        9.9166595250
 Se        15.5873406985       15.5876530778        7.0860532314
 Zn        11.3311861817       11.3311740639       11.3312297233
 Zn        11.3312458095       14.1730587282       14.1729021222
 Zn        14.1730011428       11.3311806960       14.1728833386
 Zn        14.1729230487       14.1729932180       11.3311462059
 Se        12.7521175811       12.7520966759       12.7520750738
 Se        12.7519191081       15.5876797931       15.5874415356
 Se        15.5876982046       12.7519108550       15.5874141587
 Se        15.5874814017       15.5873924728       12.7521424494
