     217
 i =       26, E =     -7688.1760516457
 Cu         8.4561439471        8.4707747353        8.4719218872
 Zn         0.0225075682       -0.0253133869        0.0199327980
 Zn        -0.0208264507        2.8309426946        2.8256171510
 Zn         2.8266398019        0.0223798365        2.8311951274
 Zn         2.8252929853        2.8310350324       -0.0207945028
 Se         1.4154350473        1.4259619116        1.4139175315
 Se         1.4203781166        4.2446546028        4.2425886900
 Se         4.2585699947        1.4155829201        4.2582764568
 Se         4.2466622536        4.2426790740        1.4171021243
 Zn        -0.0209764446       -0.0235441702        5.6699905298
 Zn        -0.0148060250        2.8278582001        8.4786825666
 Zn         2.8248088777       -0.0169647983        8.4797023792
 Zn         2.8215394058        2.8217186946        5.6713408312
 Se         1.4059969956        1.4031176021        7.0765942333
 Se         1.4024242242        4.2453700697        9.9143615341
 Se         4.2383659552        1.4111910840        9.9082261557
 Se         4.2358246506        4.2365047490        7.1054002955
 Zn        -0.0175066913       -0.0220073319       11.3313189820
 Zn        -0.0189217137        2.8250654330       14.1727709539
 Zn         2.8235954880        0.0174327452       14.1710721053
 Zn         2.8219284075        2.8283829345       11.3304880385
 Se         1.4025301650        1.4131944864       12.7435238668
 Se         1.4078793252        4.2513520937       15.5750675686
 Se         4.2545982456        1.4149466867       15.5823507956
 Se         4.2491682640        4.2513482598       12.7456801775
 Zn        -0.0230417566        5.6731069302       -0.0229427628
 Zn         0.0222945498        8.4751374754        2.8295164846
 Zn         2.8216283464        5.6715203455        2.8197262976
 Zn         2.8265636979        8.5183470923       -0.0220136349
 Se         1.4197605387        7.0798197213        1.3907290128
 Se         1.4090195306        9.9185312507        4.2514146133
 Se         4.2359313359        7.1047645180        4.2355316569
 Se         4.2435050290        9.9167358505        1.4164769826
 Zn         0.0259868278        5.6703503782        5.6686015778
 Zn        -0.0196520877        8.4821492404        8.4791804643
 Zn         2.8204000315        5.6714612513        8.5248357914
 Zn         2.8224484666        8.5232460614        5.6734992372
 Se         1.4295951520        7.0862206836        7.0865503451
 Se         1.3955637770        9.9087840745        9.9083904259
 Se         4.2476617804        7.0847408805        9.9290231092
 Se         4.2495178711        9.9289277847        7.0852699014
 Zn        -0.0159879003        5.6713927721       11.3317949393
 Zn         0.0187170502        8.5208301247       14.1725398081
 Zn         2.8253478115        5.6726284540       14.1704335757
 Zn         2.8184810997        8.5224937924       11.3292898750
 Se         1.4156045799        7.0892630737       12.7446892581
 Se         1.4103244092        9.9365219615       15.5925462592
 Se         4.2511186725        7.0782167248       15.5908960562
 Se         4.2453920523        9.9065355149       12.7640282284
 Zn        -0.0213442681       11.3335006605        0.0240900812
 Zn        -0.0203646897       14.1765225367        2.8303822810
 Zn         2.8243863475       11.3332282345        2.8318889454
 Zn         2.8263912070       14.1732695719        0.0180716800
 Se         1.4077045601       12.7523135592        1.4248024232
 Se         1.4142764970       15.5865242847        4.2452520916
 Se         4.2527400181       12.7472431879        4.2521203497
 Se         4.2480593572       15.5915968493        1.4216853913
 Zn        -0.0230983268       11.3288636606        5.6720618277
 Zn         0.0200272005       14.1725013143        8.4792973358
 Zn         2.8183661734       11.3272828458        8.5213292294
 Zn         2.8249259230       14.1720364971        5.6661772488
 Se         1.4207315728       12.7375941750        7.0769902135
 Se         1.4167990376       15.5835661159        9.9116674908
 Se         4.2415841682       12.7539076495        9.9163457720
 Se         4.2558267679       15.5710003952        7.0854659860
 Zn        -0.0198389158       11.3314587408       11.3301237406
 Zn        -0.0152495911       14.1735429989       14.1750256723
 Zn         2.8247139662       11.3440598290       14.1776629530
 Zn         2.8224114073       14.1786235378       11.3401578123
 Se         1.4082213397       12.7501075931       12.7489692450
 Se         1.4223513159       15.5795269074       15.5828559094
 Se         4.2530398591       12.7517830030       15.5966601488
 Se         4.2509641597       15.5947108048       12.7499862301
 Zn         5.6675810198       -0.0222136162       -0.0187069123
 Zn         5.6709699229        2.8206751165        2.8224184924
 Zn         8.4779815713       -0.0125731664        2.8270485927
 Zn         8.4801280551        2.8257140884       -0.0203456049
 Se         7.0784558906        1.4041399539        1.4026800586
 Se         7.1048989156        4.2369534711        4.2362807267
 Se         9.9103752638        1.4096671781        4.2394156359
 Se         9.9088505052        4.2394661498        1.4084237839
 Zn         5.6688190067       -0.0145135975        5.6739846705
 Zn         5.6721031192        2.8209124863        8.5197301605
 Zn         8.4800481520       -0.0183427100        8.4786088897
 Zn         8.5182251407        2.8207317138        5.6730762745
 Se         7.0814776859        1.4181692900        7.0807779936
 Se         7.0855662956        4.2450117384        9.9268374717
 Se         9.9104404608        1.3941965035        9.9085953238
 Se         9.9281238052        4.2441596619        7.0840120543
 Zn         5.6645115156        0.0219125165       11.3326045003
 Zn         5.6664324163        2.8324729067       14.1718281396
 Zn         8.4851401507        0.0215910091       14.1740919049
 Zn         8.5237792969        2.8218898631       11.3269277607
 Se         7.0866181244        1.4303387466       12.7453324778
 Se         7.0714746298        4.2579686952       15.5875371210
 Se         9.9193971402        1.4094461453       15.5924551722
 Se         9.9072969705        4.2477785212       12.7602972648
 Zn         5.6659739840        5.6721571843        0.0263286855
 Zn         5.6726201412        8.5213818212        2.8240991776
 Zn         8.5213848686        5.6721886347        2.8224805184
 Zn         8.4798402580        8.4814153665       -0.0215697389
 Se         7.0869690018        7.0868656831        1.4268404298
 Se         7.0862629754        9.9296007221        4.2480992694
 Se         9.9292888594        7.0848129099        4.2456525813
 Se         9.9100020201        9.9088024909        1.3940073569
 Zn         5.5513959210        5.5528181505        5.5530604197
 Zn         5.6052225337        8.4783793543        8.4792606008
 Zn         8.4785248499        5.6053245590        8.4778167832
 Zn         8.4786816291        8.4779534380        5.6061021447
 Se         7.0388845257        7.0366928088        7.0371176847
 Se         7.0681417991        9.9288379203        9.9296213401
 Se         9.9280391668        7.0685038950        9.9252423359
 Se         9.9278411938        9.9250273644        7.0708981915
 Zn         5.6689804000        5.6691868127       11.3343929957
 Zn         5.6686586079        8.4799131761       14.1787685389
 Zn         8.4800311533        5.6716550564       14.1781473515
 Zn         8.5209762568        8.5224164929       11.3943635417
 Se         7.0872905286        7.0861828846       12.7449798985
 Se         7.0715899206        9.9118591730       15.5867854906
 Se         9.9140391615        7.0707618883       15.5869343414
 Se         9.9286171778        9.9292432989       12.7707700683
 Zn         5.6685589315       11.3317269481        0.0179382518
 Zn         5.6629907856       14.1722320444        2.8283378561
 Zn         8.5247287864       11.3274616574        2.8222397221
 Zn         8.4806959774       14.1711020961        0.0168653557
 Se         7.0859682061       12.7440685621        1.4292171381
 Se         7.0787300601       15.5779963673        4.2513045412
 Se         9.9106807535       12.7580888381        4.2511953316
 Se         9.9072667522       15.5774674278        1.4238228095
 Zn         5.6709047474       11.3375872660        5.6723851031
 Zn         5.6712377240       14.1761461753        8.5217766256
 Zn         8.5206845171       11.3952725530        8.5225513558
 Zn         8.4815154481       14.1750335149        5.6746105722
 Se         7.0830699104       12.7511204729        7.0958045598
 Se         7.0782502909       15.5935597342        9.9214930350
 Se         9.9309657888       12.7686613442        9.9309142044
 Se         9.9144821291       15.5864561329        7.0715991946
 Zn         5.6001260609       11.3933940634       11.3993514457
 Zn         5.6574540236       14.1773924575       14.1768511174
 Zn         8.4807227272       11.3311145314       14.1832161523
 Zn         8.4837497767       14.1816079499       11.3329495338
 Se         7.0854495951       12.7539779419       12.7544907900
 Se         7.0898706872       15.5802587085       15.5790108319
 Se         9.9027228190       12.7557538691       15.5862066153
 Se         9.9025938405       15.5869855440       12.7565632829
 Zn        11.3284419506       -0.0200216864        0.0196015288
 Zn        11.3297865083        2.8284026141        2.8270982211
 Zn        14.1698598944        0.0197083892        2.8272548546
 Zn        14.1727014334        2.8272642579       -0.0213105972
 Se        12.7492774085        1.4197737655        1.4078535547
 Se        12.7486379991        4.2509347619        4.2493317731
 Se        15.5852978223        1.4151905246        4.2542702792
 Se        15.5791940054        4.2526063140        1.4051765175
 Zn        11.3310852386        0.0202881913        5.6695279483
 Zn        11.3272875881        2.8205235346        8.5225774910
 Zn        14.1702723115        0.0197418025        8.5218446799
 Zn        14.1698477179        2.8297262158        5.6697197439
 Se        12.7513921721        1.4224596971        7.0924922955
 Se        12.7603689835        4.2488227296        9.9052440995
 Se        15.5927433174        1.4211136852        9.9204873951
 Se        15.5901075425        4.2555748089        7.0709368444
 Zn        11.3263596706       -0.0233110485       11.3319285378
 Zn        11.3308988442        2.8249309618       14.1792194135
 Zn        14.1704917306        0.0230110885       14.1755772440
 Zn        14.1727548218        2.8267285644       11.3343420808
 Se        12.7430926071        1.4161270695       12.7431077258
 Se        12.7473032776        4.2568471265       15.5851706513
 Se        15.5996266079        1.4022784942       15.5977096907
 Se        15.5788428491        4.2527473503       12.7530091414
 Zn        11.3309525063        5.6701595869        0.0225432641
 Zn        11.3277142399        8.5231072252        2.8204972592
 Zn        14.1728883710        5.6703684576        2.8287953535
 Zn        14.1721809512        8.5206148236        0.0188512995
 Se        12.7517775138        7.0928944754        1.4225915677
 Se        12.7601531744        9.9061489144        4.2492671279
 Se        15.5973661637        7.0752889589        4.2514555692
 Se        15.5939042852        9.9082443537        1.4367267033
 Zn        11.3334672375        5.6682818633        5.6686687683
 Zn        11.3942028413        8.5206957373        8.5203845867
 Zn        14.1762085054        5.6699579816        8.4778695197
 Zn        14.1788449022        8.4788654236        5.6694190798
 Se        12.7454898677        7.0849635538        7.0840254405
 Se        12.7603927463        9.9259088397        9.9402951987
 Se        15.5793687882        7.0768000021        9.9067462131
 Se        15.5719417533        9.9116892316        7.0861254452
 Zn        11.3937789895        5.6020881122       11.3950344018
 Zn        11.3284233553        8.4826400420       14.1826242640
 Zn        14.1749768379        5.6727661064       14.1806989311
 Zn        14.1803893106        8.4827747173       11.3323241043
 Se        12.7525955583        7.0874551769       12.7533659137
 Se        12.7511751136        9.9101584755       15.5826895871
 Se        15.5823036565        7.1077005287       15.5796582862
 Se        15.5828537906        9.9107269550       12.7488821405
 Zn        11.3268939007       11.3327488883       -0.0214642415
 Zn        11.3368727846       14.1760294741        2.8277012283
 Zn        14.1713313211       11.3356640528        2.8257275717
 Zn        14.1690263322       14.1747731321       -0.0194145185
 Se        12.7486479268       12.7477070558        1.4075264902
 Se        12.7514299114       15.5933394815        4.2516848186
 Se        15.5774236199       12.7524865373        4.2544592045
 Se        15.5748050955       15.5854397571        1.4151514306
 Zn        11.3964641555       11.3950007789        5.6060289802
 Zn        11.3294021267       14.1810088192        8.4807772446
 Zn        14.1800815148       11.3320251437        8.5235944222
 Zn        14.1703909374       14.1799289022        5.6712135600
 Se        12.7592514393       12.7475764910        7.0963068482
 Se        12.7505519073       15.5814854802        9.9100231898
 Se        15.5940542747       12.7624275347        9.9099768042
 Se        15.5759394580       15.5859401118        7.0982109309
 Zn        11.3332845239       11.3393946003       11.3430141099
 Zn        11.3255259896       14.1750866984       14.1741802184
 Zn        14.1710388246       11.3291107803       14.1721499816
 Zn        14.1710853520       14.1728807410       11.3297589356
 Se        12.7526715595       12.7541740293       12.7545853612
 Se        12.7475820452       15.5920531234       15.5805764740
 Se        15.5844351309       12.7434751914       15.5879488230
 Se        15.5736490635       15.5861659480       12.7565254945
