     192
 i =        6, E =     -6777.5637767493
 Zn        -0.3561803937        0.0334011814        0.3827120827
 Zn         2.8797213102        6.0447902526        1.8552720747
 Zn         2.8797388583        2.0371926919        1.8552972644
 Zn         0.0257856989        0.0334000877        4.0125865339
 Zn         0.0252291393        0.0333709460        8.0041924871
 Zn         0.0348926201        0.0336095147       16.0499125385
 Zn        -0.3561851024        8.0485923095        0.3826717962
 Zn         5.6933920939       12.0561884193        4.0125830494
 Zn         5.7181329840        4.0453772963       20.1672473429
 Zn         5.6933729583        4.0409970151        4.0125362896
 Zn         5.7039848400       12.0543384845       20.1713296617
 Zn         2.8664705771        6.0447726614       10.0178844608
 Zn         2.8747964457        6.0450372870       18.0121631257
 Zn         2.8797466678       14.0599908795        1.8553024218
 Zn         8.5373087058        2.0371870128        5.9737735905
 Cu         8.2070862823       10.2563290316       21.5527937842
 Zn         8.5372710751       10.0523829879        5.9736541541
 Zn         8.1458009110        2.0526283065       21.6423176650
 Zn         2.8666384679        2.0371466236       10.0181162878
 Zn         2.8609014606        2.0362883366       18.0115105219
 Zn         2.8797209952       10.0523932385        1.8552691540
 Zn         8.5373897327       14.0599790491        5.9738197316
 Zn         8.1686554476        6.1135582933       21.5873105325
 Zn         8.5372185478        6.0448060324        5.9736408281
 Zn         8.1023313373       14.0533758746       21.6491517396
 Zn         0.0331779409        0.0333396184       12.0056522943
 Zn         0.0369854558        0.0287939323       20.1707937757
 Zn         0.0257553602        8.0485911582        4.0125330612
 Zn         5.6927899387       12.0561730349        8.0041951871
 Zn         5.3114117565        4.0409976383        0.3826858443
 Zn         5.6926864846        4.0410085097        8.0040777863
 Zn         5.3114151229       12.0561853238        0.3826983576
 Zn         0.0250540668        8.0486240054        8.0040310121
 Zn         0.0364543282        8.0487154097       16.0485312231
 Zn         2.8667230355       14.0599564803       10.0182087612
 Zn         2.8535823484       14.0602951150       18.0100634296
 Zn         2.8664781117       10.0524819065       10.0178695463
 Zn         2.8619685620       10.0545399085       18.0097544388
 Zn         0.0327378779        8.0486770765       12.0048413708
 Zn         0.0899957209        8.0409161379       20.1666149301
 Zn         5.3114257416        0.0333988187        0.3827120420
 Zn         0.0257784701        4.0409964161        4.0125359227
 Zn         0.0353202787       12.0496427396       20.1690448591
 Zn         0.0257910379       12.0561823325        4.0125692645
 Zn         0.0545311557        4.0383250398       20.1670073625
 Zn         8.5473389189        6.0447934841        1.8552449213
 Zn         2.8696576312       10.0524014827        5.9736948430
 Zn         2.4777016660        2.0363422938       21.6410201890
 Zn         2.8697386485        2.0371837263        5.9737685211
 Zn         2.4813212970       10.0528934646       21.6397740075
 Zn         8.5473429797        2.0371965204        1.8552956363
 Zn         2.8696498725        6.0447896451        5.9736924785
 Zn         2.4741866137       14.0588723236       21.6398241764
 Zn         2.8697798947       14.0599808897        5.9737898154
 Zn         2.4884551220        6.0452121315       21.6408255428
 Zn         5.6934200558        0.0333923399        4.0125649813
 Zn         0.0251284719        4.0409785933        8.0040668738
 Zn        -0.3561825455       12.0561815069        0.3826925012
 Zn         0.0252124226       12.0561994252        8.0041333777
 Zn        -0.3561891202        4.0409977621        0.3826771246
 Zn         5.6928235555        0.0333630661        8.0041961448
 Zn         5.7031511081        0.0325535476       16.0500986759
 Zn         5.3114065757        8.0485921278        0.3826556150
 Zn         8.5341094429        6.0448204184       10.0174802004
 Zn         8.5337514017        6.0449856863       18.0045969919
 Zn         8.5473380643       14.0599859518        1.8553139361
 Zn         8.5342081932        2.0371815418       10.0181297598
 Zn         8.5274701603        2.0371412968       18.0105960997
 Zn         8.5473365199       10.0523901926        1.8552545574
 Zn         5.7007776289        0.0333551869       12.0056061720
 Zn         5.7078549809        0.0353556927       20.1664115185
 Zn         5.6933555445        8.0485967741        4.0124832490
 Zn         5.6925851706        8.0486154143        8.0038656026
 Zn         5.7024171320        8.0483380726       16.0457930580
 Zn         0.0327151701       12.0561087026       12.0053986886
 Zn         0.0326009023        4.0409981166       12.0048601441
 Zn         8.5343138071       14.0599440514       10.0184052766
 Zn         8.5242709070       14.0584814817       18.0127190237
 Zn         2.8599392087        2.0367671232       14.0194682033
 Zn         2.8589177879       10.0528214120       14.0189280087
 Zn         8.5340905631       10.0523786820       10.0175745113
 Zn         8.5271169680       10.0490637394       18.0075236691
 Zn         2.8592189974       14.0598312570       14.0193864156
 Zn         2.8583305918        6.0445864171       14.0188253752
 Zn         5.7000900869        8.0486196404       12.0039678417
 Zn         5.7436362519        8.0635475784       20.1627173782
 Zn         0.0339100332       12.0559936204       16.0488252598
 Zn         0.0407339320        4.0410897536       16.0497363155
 Zn         5.7002088919        4.0410476257       12.0049582395
 Zn         5.7002959637       12.0561673742       12.0056944971
 Zn         8.5262947722       10.0521529305       14.0179898627
 Zn         8.5275933989        2.0371851921       14.0195554497
 Zn         8.5264813361        6.0449923293       14.0178911723
 Zn         8.5265606937       14.0600799150       14.0198452323
 Zn         5.7068372117        4.0400050217       16.0488490425
 Zn         5.7050565141       12.0563659249       16.0511064102
 Se         1.4440990468        0.0333952180        1.9840416773
 Se         1.3240002639        0.0335481353       22.2448402307
 Se         9.8281116851       14.0599972976       -0.2223651978
 Se         9.8281118927        2.0371848329       -0.2223991544
 Se         4.2588093598        6.0447752897        3.9447691356
 Se         4.1605011226        6.0447762935       -0.2224321666
 Se         1.4441054491        4.0409764389        1.9839795286
 Se         1.4441082792        8.0485916884        1.9839566558
 Se         4.2588483589        2.0371688740        3.9448508226
 Se         4.1605210283        2.0371781589       -0.2223927932
 Se         1.4458461477        0.0333715466        6.0014631968
 Se         9.9264366910       14.0599971560        3.9448969282
 Se         9.9264197800        2.0371777304        3.9448706931
 Se         1.4472923268        0.0333363811       10.0071676178
 Se         1.4392660115        0.0333246056       14.0279856308
 Se         9.8281276683        6.0447868249       -0.2224488867
 Se         9.8281218668       10.0524008712       -0.2224446171
 Se         7.1134263071       12.0562364827        6.0014358170
 Se         4.2972312346        6.0604444362       20.0477549352
 Se         7.0965427541        4.0420099053       18.0770225270
 Se         4.2588078249       10.0524248651        3.9447670714
 Se         7.1133917066        4.0409413541        6.0013474106
 Se         4.2750172827       10.0499959937       20.0339163297
 Se         7.0917453555       12.0533161700       18.0849424387
 Se         4.2808837133        6.0445933045       12.0161623355
 Se         4.2834009276        6.0420336218       16.0182073134
 Se         1.4441032559       12.0562075769        1.9840057605
 Se         9.9406313841        2.0371157924        7.9967499320
 Se         6.9072951461       12.0634994547       22.2908517921
 Se         9.9568390089       10.0072150327       20.0155613196
 Se         7.1134461929        0.0333640968        6.0014661594
 Se         9.9406211427       10.0524931113        7.9962587910
 Se         6.9820437832        0.0526367183       22.2494463890
 Se         9.9454133434        2.0377903734       20.0408795317
 Se         4.2813359502        2.0369058357       12.0166968464
 Se         4.2806942052        2.0361730246       16.0230174216
 Se         9.9406159141       14.0600124067        7.9969135439
 Se         7.1251348839        8.1988969523       22.1590846865
 Se         9.9775981995        6.0483103885       20.0103509976
 Se         9.9406536881        6.0447256853        7.9961959275
 Se         7.1133752523        8.0486112130        6.0011345764
 Se         9.9215495628       14.0499907824       20.0590959717
 Se         1.4190963550        0.0338961426       18.0824112644
 Se         9.9264133512        6.0447685143        3.9447183533
 Se         9.9264159544       10.0524189817        3.9447255970
 Se         7.1147582678       12.0563002042       10.0071810389
 Se         7.0261955238        4.0995093540       22.2268796941
 Se         4.2729359798       10.0524944605        7.9964553666
 Se         7.1148208420        4.0409097579       10.0066750188
 Se         4.1605046357       10.0524099065       -0.2224337588
 Se         4.2729171350        6.0447335939        7.9965002628
 Se         1.4473319605        8.0486160603       10.0063929843
 Se         1.4401570063        8.0487523381       14.0254503510
 Se         9.9518324209        6.0431986167       16.0153266847
 Se         9.9477464351       10.0521702728       16.0169047746
 Se         4.2811722026       14.0602007478       12.0169116538
 Se         4.2781150657       14.0592420966       16.0236560267
 Se         1.4176224920       12.0550610704       18.0803018986
 Se         1.4471734251       12.0563844150       10.0069243418
 Se         4.2809171522       10.0526625913       12.0160032465
 Se         4.2807578964       10.0541244497       16.0198105099
 Se         1.4408096908        8.0456614022       18.0678763512
 Se         9.9487230505       10.0525315124       12.0152534473
 Se         9.9489505797        6.0446926040       12.0151082541
 Se         7.1117210982        0.0333936597        1.9840286075
 Se         4.1605278109       14.0600001412       -0.2223833624
 Se         1.4458267567        4.0409207242        6.0013216361
 Se         1.4458266356       12.0562657857        6.0013717221
 Se         1.4351896967        4.0425569980       18.0781999345
 Se         7.1117087541        4.0409892586        1.9839817104
 Se         7.1117134386        8.0485911637        1.9838961163
 Se         4.2806354902        2.0443543090       20.0420313358
 Se         4.2730511599        2.0371010487        7.9967524609
 Se         1.3217649082       12.0535930176       22.2416811066
 Se         1.4458111343        8.0486036957        6.0012791996
 Se         4.2710143803       14.0653698239       20.0344809627
 Se         4.2730570193       14.0600089451        7.9967784117
 Se         1.3395938339        8.0462371548       22.2556353810
 Se         4.2588491685       14.0600029111        3.9448579011
 Se         1.4472909548        4.0408133533       10.0066614111
 Se         1.3332653229        4.0434245615       22.2449649680
 Se         7.1149060559        0.0333335043       10.0071352999
 Se         7.1070490960        0.0335712960       14.0279012220
 Se         7.1117049996       12.0561974010        1.9840238470
 Se         9.9488936661        2.0368664299       12.0167145276
 Se         9.9487546066        2.0387590432       16.0229962081
 Se         7.0920727778        0.0338504305       18.0805428641
 Se         7.1148092581        8.0485746371       10.0056817595
 Se         7.1068180695        8.0484855782       14.0229881728
 Se         1.4388714422       12.0567960745       14.0269986865
 Se         1.4405490731        4.0398935699       14.0254815879
 Se         9.9486842832       14.0602038440       12.0174018522
 Se         9.9455562719       14.0606966887       16.0251734421
 Se         7.0969255568        8.0446191212       18.0615959541
 Se         7.1079263604        4.0402529572       14.0254688286
 Se         7.1070144692       12.0567098974       14.0275772142
