     192
 i =       19, E =     -6790.5153627110
 Zn        -0.3598163729        0.0335348583        0.3820377007
 Zn         2.8755750517        6.0448586692        1.8551112037
 Zn         2.8755668667        2.0372902738        1.8551369442
 Zn         0.0208565466        0.0336128039        4.0127555626
 Zn         0.0220778943        0.0335275450        8.0042171961
 Zn         0.0346764758        0.0335304678       16.0492028363
 Zn        -0.3598207902        8.0487251054        0.3820258600
 Zn         5.6884523610       12.0562284517        4.0127652702
 Zn         5.7128175671        4.0411573681       20.1676242190
 Zn         5.6884597824        4.0411121133        4.0127643378
 Zn         5.7128036512       12.0563363603       20.1676295570
 Zn         2.8645283749        6.0449316524       10.0179955992
 Zn         2.8584032587        6.0450149744       18.0109347799
 Zn         2.8755304036       14.0600646416        1.8551586758
 Zn         8.5328406194        2.0373103537        5.9739236980
 Zn         8.1451456167       10.0525518316       21.6398776101
 Zn         8.5328402388       10.0524120045        5.9739336802
 Zn         8.1451584833        2.0373710221       21.6398379385
 Zn         2.8644956823        2.0373496488       10.0179634844
 Zn         2.8584092794        2.0373994507       18.0109375600
 Zn         2.8755514187       10.0524334750        1.8551230394
 Zn         8.5328443300       14.0600362897        5.9739091258
 Zn         8.1451446622        6.0449817166       21.6398595005
 Zn         8.5328362550        6.0448579688        5.9739544780
 Zn         8.1451457472       14.0601501041       21.6398481326
 Zn         0.0312639330        0.0336323483       12.0048951404
 Zn         0.0452340354        0.0335387274       20.1676139534
 Zn         0.0208581780        8.0487423491        4.0127536213
 Zn         5.6896860891       12.0563028198        8.0042136744
 Zn         5.3077847644        4.0412485532        0.3820552305
 Zn         5.6896705192        4.0411468675        8.0042194802
 Zn         5.3077646046       12.0564555965        0.3820402347
 Zn         0.0220750258        8.0486861883        8.0042222097
 Zn         0.0346898004        8.0487405049       16.0492122458
 Zn         2.8644826310       14.0601185163       10.0179321150
 Zn         2.8583968509       14.0601847905       18.0109257102
 Zn         2.8645015022       10.0525013815       10.0179598610
 Zn         2.8583953994       10.0526158080       18.0109135349
 Zn         0.0312869928        8.0488111585       12.0049008856
 Zn         0.0452154767        8.0487410666       20.1676341913
 Zn         5.3077784461        0.0336555118        0.3820499932
 Zn         0.0208618948        4.0412449703        4.0127618064
 Zn         0.0452228265       12.0563384175       20.1676304177
 Zn         0.0208557993       12.0563168582        4.0127394033
 Zn         0.0452226979        4.0411436467       20.1676229376
 Zn         8.5432283624        6.0448779901        1.8550996337
 Zn         2.8652271125       10.0524082829        5.9739386754
 Zn         2.4775680829        2.0373639927       21.6398495008
 Zn         2.8652402027        2.0372687439        5.9739423560
 Zn         2.4775490557       10.0525486348       21.6398645432
 Zn         8.5431750316        2.0373174062        1.8551313812
 Zn         2.8652350874        6.0448448815        5.9739522721
 Zn         2.4775470791       14.0601458246       21.6398637482
 Zn         2.8652329405       14.0600106604        5.9739296883
 Zn         2.4775462926        6.0449675867       21.6398558648
 Zn         5.6884584384        0.0335020793        4.0127491477
 Zn         0.0220739183        4.0411174750        8.0042250334
 Zn        -0.3598223254       12.0563406071        0.3820213544
 Zn         0.0220753780       12.0562867802        8.0042111909
 Zn        -0.3598054035        4.0411262605        0.3820328535
 Zn         5.6896876207        0.0335555285        8.0042161473
 Zn         5.7022568302        0.0334651079       16.0492105376
 Zn         5.3077792758        8.0488375691        0.3820537422
 Zn         8.5321030436        6.0449603479       10.0179862636
 Zn         8.5260027589        6.0450121164       18.0109300361
 Zn         8.5431389477       14.0600903108        1.8551673962
 Zn         8.5320975186        2.0373791361       10.0179508582
 Zn         8.5260053516        2.0374020224       18.0109191491
 Zn         8.5431792593       10.0524328018        1.8551165736
 Zn         5.6988720889        0.0336459177       12.0048871974
 Zn         5.7128099613        0.0335455860       20.1676097493
 Zn         5.6884477775        8.0486445578        4.0127431615
 Zn         5.6896845849        8.0487115722        8.0042291052
 Zn         5.7022878121        8.0487058619       16.0492077903
 Zn         0.0312727380       12.0564312666       12.0048902200
 Zn         0.0312909829        4.0412148112       12.0049062895
 Zn         8.5321107493       14.0601624469       10.0179304281
 Zn         8.5260003932       14.0602107999       18.0109233977
 Zn         2.8577730348        2.0372918571       14.0192322975
 Zn         2.8577966871       10.0525200635       14.0192177940
 Zn         8.5321260772       10.0525464761       10.0179630336
 Zn         8.5260038091       10.0526071104       18.0109322866
 Zn         2.8577987796       14.0601102173       14.0192104033
 Zn         2.8577784496        6.0449019815       14.0192384212
 Zn         5.6988744280        8.0488513475       12.0049076399
 Zn         5.7128134994        8.0487595383       20.1676336048
 Zn         0.0346720334       12.0563366051       16.0492065662
 Zn         0.0346954410        4.0411279424       16.0492126258
 Zn         5.6988864953        4.0412409493       12.0049064012
 Zn         5.6988807789       12.0564455599       12.0048912793
 Zn         8.5253833629       10.0525194968       14.0192289016
 Zn         8.5253803921        2.0372987347       14.0192251200
 Zn         8.5253850824        6.0449079983       14.0192269520
 Zn         8.5253966010       14.0601154012       14.0192090939
 Zn         5.7022767057        4.0410755703       16.0492131016
 Zn         5.7022773303       12.0562832952       16.0492018341
 Se         1.4393827017        0.0335282732        1.9841298446
 Se         1.3267826505        0.0335606763       22.2444476421
 Se         9.8236569502       14.0600793178       -0.2222797492
 Se         9.8237099545        2.0372920564       -0.2223146124
 Se         4.2538697792        6.0448021831        3.9450995168
 Se         4.1561157950        6.0450146543       -0.2223252965
 Se         1.4393895199        4.0411170517        1.9841354168
 Se         1.4393856855        8.0486920976        1.9841352178
 Se         4.2538705438        2.0372283503        3.9450990758
 Se         4.1560924944        2.0374416019       -0.2222901496
 Se         1.4415017474        0.0334214389        6.0009920383
 Se         9.9214630279       14.0600849022        3.9451164877
 Se         9.9214671139        2.0373166032        3.9451001093
 Se         1.4445764340        0.0334610865       10.0061510843
 Se         1.4378384894        0.0335556034       14.0259616445
 Se         9.8237345091        6.0448691764       -0.2223707116
 Se         9.8236883800       10.0524735431       -0.2223096165
 Se         7.1091162910       12.0561791297        6.0010015868
 Se         4.2773761868        6.0450257388       20.0383898408
 Se         7.0915801735        4.0410757079       18.0775266404
 Se         4.2538602798       10.0523592268        3.9451053133
 Se         7.1090950449        4.0410280942        6.0009774404
 Se         4.2773679745       10.0526155030       20.0384057837
 Se         7.0915484415       12.0562461604       18.0775125679
 Se         4.2789924418        6.0448726354       12.0159230432
 Se         4.2784632017        6.0449206793       16.0214247854
 Se         1.4393641010       12.0562928535        1.9841152379
 Se         9.9372936508        2.0373213253        7.9962691072
 Se         6.9943618263       12.0563374804       22.2444615260
 Se         9.9449769536       10.0525992413       20.0384226654
 Se         7.1091040570        0.0334185310        6.0009920190
 Se         9.9372921298       10.0524885147        7.9962550246
 Se         6.9943752121        0.0335593313       22.2444311327
 Se         9.9450034700        2.0374162922       20.0383971463
 Se         4.2789629048        2.0372664816       12.0159055002
 Se         4.2784314342        2.0372954791       16.0214350294
 Se         9.9372956744       14.0601077243        7.9962485655
 Se         6.9943506683        8.0487536539       22.2444856825
 Se         9.9449649441        6.0450232941       20.0383977808
 Se         9.9372904633        6.0448910454        7.9962749953
 Se         7.1091034246        8.0485882511        6.0009726363
 Se         9.9449995904       14.0601930978       20.0384047123
 Se         1.4239812509        0.0334524462       18.0775075310
 Se         9.9214698705        6.0449020486        3.9451018466
 Se         9.9214749743       10.0524784841        3.9450993246
 Se         7.1122019789       12.0562534139       10.0061621747
 Se         6.9943732675        4.0411674891       22.2444486337
 Se         4.2696876515       10.0525064047        7.9962597037
 Se         7.1121916000        4.0410617876       10.0061673912
 Se         4.1560942402       10.0525870949       -0.2222834858
 Se         4.2696927635        6.0449202735        7.9962894263
 Se         1.4446061167        8.0486348121       10.0061674134
 Se         1.4378711800        8.0487803317       14.0259795768
 Se         9.9460655749        6.0449305703       16.0214356086
 Se         9.9460521033       10.0525238131       16.0214347490
 Se         4.2789511928       14.0600579187       12.0158794950
 Se         4.2784343683       14.0600900435       16.0214347998
 Se         1.4239601281       12.0562537956       18.0775167253
 Se         1.4445868325       12.0562414004       10.0061491810
 Se         4.2789820192       10.0524787519       12.0159001708
 Se         4.2784486781       10.0525153889       16.0214289562
 Se         1.4239654155        8.0486635729       18.0775251892
 Se         9.9465874976       10.0524586763       12.0159017319
 Se         9.9465805966        6.0448369142       12.0159061449
 Se         7.1069814763        0.0335502305        1.9841221431
 Se         4.1560516070       14.0602243945       -0.2222637692
 Se         1.4414944769        4.0410008309        6.0009844947
 Se         1.4414970385       12.0561782788        6.0009831528
 Se         1.4239920110        4.0410762631       18.0775208637
 Se         7.1070032844        4.0411424844        1.9841388237
 Se         7.1070081546        8.0487000273        1.9841422514
 Se         4.2773981294        2.0374290166       20.0384082167
 Se         4.2696923637        2.0373382203        7.9962804587
 Se         1.3267742500       12.0563354472       22.2444709138
 Se         1.4414984465        8.0485804174        6.0009839997
 Se         4.2773759589       14.0602030996       20.0384269580
 Se         4.2696929245       14.0601235791        7.9962631766
 Se         1.3267684983        8.0487418018       22.2444837286
 Se         4.2538596720       14.0599963337        3.9451037751
 Se         1.4446053042        4.0410641514       10.0061686330
 Se         1.3267728055        4.0411549002       22.2444549399
 Se         7.1121874364        0.0334565651       10.0061514398
 Se         7.1054318065        0.0335512305       14.0259673196
 Se         7.1069814359       12.0562807417        1.9841277657
 Se         9.9465596337        2.0372597907       12.0159046504
 Se         9.9460471379        2.0373201075       16.0214376166
 Se         7.0915465974        0.0334729200       18.0774987099
 Se         7.1122042861        8.0486642776       10.0061786492
 Se         7.1054551709        8.0487665413       14.0259798972
 Se         1.4378641085       12.0563799179       14.0259610962
 Se         1.4378541124        4.0411617645       14.0259697371
 Se         9.9465559710       14.0600441364       12.0158855336
 Se         9.9460376912       14.0601291688       16.0214059911
 Se         7.0915802309        8.0486703308       18.0775178531
 Se         7.1054495572        4.0411570410       14.0259838808
 Se         7.1054542619       12.0563846422       14.0259592209
