     216
 i =       25, E =     -7626.7230033789
 Zn         0.0184644624        0.0203116632        0.0180327163
 Zn        -0.0273948126        2.8358367711        2.8312200652
 Zn         2.8304002458        0.0177041801        2.8363562085
 Zn         2.8331771446        2.8289947506        0.0150653772
 Se         1.4148425804        1.4303761322        1.4307296426
 Se         1.4160664501        4.2447563667        4.2467942677
 Se         4.2574833980        1.4167277128        4.2603705151
 Se         4.2521464227        4.2470818635        1.4237721843
 Zn         0.0241133481        0.0223811431        5.6726002839
 Zn        -0.0133257542        2.8295162155        8.5225185389
 Zn         2.8298430958       -0.0151785326        8.5244674201
 Zn         2.8320097913        2.8323795819        5.6749052106
 Se         1.4248516472        1.4236079411        7.1054431639
 Se         1.4113364146        4.2528801599        9.9258943271
 Se         4.2528420669        1.4260184027        9.9091834465
 Se         4.2561113449        4.2698406982        7.0844888446
 Zn        -0.0204470737       -0.0205997392       11.3332143762
 Zn         0.0218705864        2.8243350146       14.1696027444
 Zn         2.8310690357       -0.0193581035       14.1746525523
 Zn         2.8288887332        2.8279887515       11.3327763632
 Se         1.4177598473        1.3987766797       12.7448521018
 Se         1.4292963830        4.2448321432       15.5826548562
 Se         4.2468472137        1.4147710777       15.5891404385
 Se         4.2549053940        4.2529285401       12.7452649854
 Zn         0.0180461646        5.6730924243       -0.0214540379
 Zn         0.0250842637        8.4778433219        2.8315921744
 Zn         2.8291814129        5.6715810538        2.8303203829
 Zn         2.8306307276        8.5244333783       -0.0224398686
 Se         1.4306464301        7.0849812405        1.3992536739
 Se         1.4158236861        9.9122203885        4.2562927933
 Se         4.2509228735        7.0884198437        4.2444344418
 Se         4.2469712133        9.9268516920        1.4045281445
 Zn         0.0218399854        5.6689420750        5.6738906630
 Zn        -0.0201004217        8.5228284308        8.4805168960
 Zn         2.8311641589        5.6750584577        8.5249532937
 Zn         2.8277099914        8.4825809859        5.6728278578
 Se         1.4141685889        7.0859963063        7.0991069524
 Se         1.3998245288        9.9187227744        9.9174293529
 Se         4.2678337562        7.1036469963        9.9058337762
 Se         4.2374588318        9.9239310149        7.0818214737
 Zn        -0.0211954278        5.6731695959       11.3298258360
 Zn         0.0183971785        8.4813824706       14.1726936718
 Zn         2.8337750126        5.6720891745       14.1688345718
 Zn         2.8316906225        8.5207235892       11.3267508858
 Se         1.4227390175        7.0816209166       12.7392183828
 Se         1.4021126485        9.9281407220       15.5866977272
 Se         4.2514909629        7.0796469223       15.5916056623
 Se         4.2530056929        9.9154403761       12.7590970178
 Zn        -0.0201570145       11.3310915028        0.0222549380
 Zn        -0.0192959534       14.1763451959        2.8310243058
 Zn         2.8284183066       11.3304406619        2.8326382116
 Zn         2.8300843789       14.1734174032        0.0249690540
 Se         1.4071616690       12.7523353428        1.4260692258
 Se         1.4130248026       15.5913106057        4.2463678080
 Se         4.2507575495       12.7570781639        4.2482199166
 Se         4.2507698302       15.5982812161        1.4245356333
 Zn        -0.0173966633       11.3278892913        5.6691736183
 Zn         0.0170668027       14.1734720361        8.4748500747
 Zn         2.8273050583       11.3311539175        8.5221193153
 Zn         2.8263068563       14.1725646329        5.6660241266
 Se         1.4190830294       12.7400834979        7.0771373970
 Se         1.4093042793       15.5786578343        9.9211010758
 Se         4.2554004593       12.7555228131        9.9159684913
 Se         4.2414632779       15.5838996503        7.0859301482
 Zn        -0.0243201116       11.3300042671       11.3336934040
 Zn         0.0237301832       14.1695197707       14.1776649655
 Zn         2.8287085312       11.3322709166       14.1740161119
 Zn         2.8320260062       14.1712041288       11.3319634175
 Se         1.4162108852       12.7463363548       12.7462666402
 Se         1.4189958633       15.5871633039       15.6030340852
 Se         4.2423013230       12.7604915028       15.5884909658
 Se         4.2571862992       15.5905926515       12.7444144879
 Zn         5.6732074861        0.0209652696        0.0206676957
 Zn         5.6751260756        2.8285250034        2.8335268743
 Zn         8.5224151010        0.0218704643        2.8304583531
 Zn         8.5242078571        2.8305613391       -0.0224440936
 Se         7.1017587457        1.4294918769        1.4154525528
 Se         7.0895634751        4.2531132047        4.2472520096
 Se         9.9254386815        1.4201679371        4.2601933374
 Se         9.9269536014        4.2471597690        1.4059100988
 Zn         5.6721643470       -0.0219373697        5.6705799404
 Zn         5.6761722970        2.8317049310        8.4801842528
 Zn         8.5216237042       -0.0215162590        8.4828691500
 Zn         8.4823306219        2.8269338906        5.6721592485
 Se         7.0871525009        1.3992310994        7.0838233090
 Se         7.0975817745        4.2611226341        9.8947133426
 Se         9.9188699936        1.3997889660        9.9176962155
 Se         9.9234212572        4.2357232138        7.0821773410
 Zn         5.6730587605        0.0213807738       11.3268722991
 Zn         5.6678219686        2.8315896111       14.1747874148
 Zn         8.4804371711        0.0184267176       14.1736432768
 Zn         8.5206441646        2.8353325314       11.3231290693
 Se         7.0864872478        1.4333021439       12.7443227936
 Se         7.0798901595        4.2508916483       15.5925006449
 Se         9.9284430122        1.4025448859       15.5862288854
 Se         9.9164753373        4.2543051375       12.7551164584
 Zn         5.6717888513        5.6713533328        0.0204400085
 Zn         5.6657181019        8.5252995317        2.8281391769
 Zn         8.5253158878        5.6665829182        2.8289650861
 Zn         8.4818383883        8.4820559901        0.0227919351
 Se         7.0787979237        7.0786994427        1.4376003652
 Se         7.0629148256        9.9099622689        4.2659230882
 Se         9.9053922788        7.0652017345        4.2705543264
 Se         9.9046899504        9.9048585195        1.4291435121
 Zn         5.6782624379        5.6795484670        5.6616323652
 Zn         5.6796567346        8.5277275526        8.4733823022
 Zn         8.5281198018        5.6793368077        8.4760999535
 Cu         8.5163485733        8.5223359525        5.6521319862
 Se         7.1278831078        7.1265311768        7.0415844705
 Se         7.0895243187        9.9208013030        9.9184789852
 Se         9.9276857541        7.0942672653        9.9083326483
 Se         9.9007266300        9.9147251431        7.0985337803
 Zn         5.6759866243        5.6715986802       11.3232648869
 Zn         5.6724675759        8.4781664383       14.1708364438
 Zn         8.4795036658        5.6711595467       14.1713706853
 Zn         8.5247421843        8.5190040384       11.3283553213
 Se         7.0929112596        7.0899321864       12.7371596261
 Se         7.0824868431        9.9008419414       15.5882160404
 Se         9.9013174130        7.0830233544       15.5885107717
 Se         9.9220656274        9.9200006102       12.7645238922
 Zn         5.6717189045       11.3329675361       -0.0209616253
 Zn         5.6733099565       14.1723875431        2.8264827710
 Zn         8.4760177166       11.3275548359        2.8321970944
 Zn         8.5154372331       14.1730375885       -0.0226370572
 Se         7.0853048187       12.7548288364        1.4020555704
 Se         7.0927171776       15.5912531524        4.2393466180
 Se         9.9064794305       12.7432906486        4.2510556993
 Se         9.9127454197       15.5792921496        1.4212131206
 Zn         5.6677474245       11.3351310042        5.6726437521
 Zn         5.6735530257       14.1726384624        8.4824035199
 Zn         8.5230885097       11.3350289426        8.5243797672
 Zn         8.4801974780       14.1674408391        5.6689006766
 Se         7.0899462085       12.7418369209        7.0931146699
 Se         7.0798547786       15.5933287836        9.9086697296
 Se         9.9166712868       12.7618220437        9.9381796703
 Se         9.9226393930       15.5652481492        7.0800205354
 Zn         5.6697828287       11.3297219208       11.3318796188
 Zn         5.6690420473       14.1771963912       14.1761248540
 Zn         8.4828167741       11.3276295451       14.1761574940
 Zn         8.4768854321       14.1780705557       11.3343901727
 Se         7.0771004185       12.7508821373       12.7577202333
 Se         7.0790191431       15.5971117153       15.5930863711
 Se         9.9201921761       12.7391596839       15.5850019448
 Se         9.9010410074       15.5865083659       12.7591659481
 Zn        11.3328243349       -0.0180768838        0.0229217987
 Zn        11.3361423560        2.8282934173        2.8282215918
 Zn        14.1735943544       -0.0191146627        2.8278009835
 Zn        14.1753558050        2.8264766806       -0.0190545967
 Se        12.7600623044        1.4123194750        1.4144176203
 Se        12.7585198201        4.2485567471        4.2478043838
 Se        15.5826350002        1.4086645073        4.2506808344
 Se        15.5882377028        4.2564225550        1.3982618085
 Zn        11.3311821058       -0.0190376060        5.6719937277
 Zn        11.3313198367        2.8270002109        8.5228737204
 Zn        14.1743344665        0.0169133351        8.4770220969
 Zn        14.1727181853        2.8284895815        5.6702288998
 Se        12.7418786500        1.4190780171        7.0805436423
 Se        12.7581884975        4.2534559426        9.9168897796
 Se        15.5808635494        1.4090970085        9.9224918271
 Se        15.5943377758        4.2452250262        7.0817712331
 Zn        11.3303226388       -0.0232469092       11.3346206172
 Zn        11.3314488466        2.8254137566       14.1686509458
 Zn        14.1741762383       -0.0142118816       14.1749321086
 Zn        14.1702406944        2.8280336273       11.3347874871
 Se        12.7521588902        1.4052999876       12.7518718427
 Se        12.7524273358        4.2475917520       15.5787388722
 Se        15.5974170265        1.4098804755       15.5816191626
 Se        15.5899457382        4.2449517904       12.7574311661
 Zn        11.3310295451        5.6716148544       -0.0204248864
 Zn        11.3248097396        8.4771589918        2.8353283300
 Zn        14.1751585824        5.6690316155        2.8264689262
 Zn        14.1728682382        8.5204832742        0.0186590410
 Se        12.7493302111        7.0806188207        1.4120675897
 Se        12.7446209664        9.9051380391        4.2524507581
 Se        15.5979039160        7.0743155784        4.2495672151
 Se        15.5929596826        9.9085575100        1.4377559925
 Zn        11.3325804615        5.6644770370        5.6699247568
 Zn        11.3335000018        8.5239641421        8.4834616369
 Zn        14.1735804227        5.6694288652        8.4796199544
 Zn        14.1719648763        8.4784006141        5.6650375945
 Se        12.7463950042        7.0832949009        7.0829963643
 Se        12.7536629673        9.9125957492        9.9272605035
 Se        15.5844407916        7.0860422950        9.9023147476
 Se        15.5656787213        9.9213723611        7.0785324383
 Zn        11.3295810053        5.6715258597       11.3283513028
 Zn        11.3303249040        8.4838432238       14.1783495187
 Zn        14.1771747666        5.6715336964       14.1748279285
 Zn        14.1741579744        8.4821436808       11.3317503499
 Se        12.7512173062        7.0782818940       12.7551297053
 Se        12.7464153303        9.9152527757       15.5934506353
 Se        15.5851043686        7.0920785328       15.5923893609
 Se        15.5856478953        9.9026891152       12.7573473500
 Zn        11.3272578842       11.3251532782        0.0229854137
 Zn        11.3279923538       14.1636157148        2.8316808154
 Zn        14.1668298917       11.3272085381        2.8342001399
 Zn        14.1740216358       14.1705060847       -0.0220949688
 Se        12.7570556603       12.7525787431        1.4145571434
 Se        12.7509194935       15.5777911026        4.2496636404
 Se        15.5786816398       12.7520332759        4.2521408843
 Se        15.5871984622       15.5868862973        1.4021533291
 Zn        11.3275382474       11.3279907043        5.6737047639
 Zn        11.3345523797       14.1706072103        8.5229154829
 Zn        14.1695164125       11.3327683409        8.5233266400
 Zn        14.1716186591       14.1719613070        5.6777866643
 Se        12.7480865839       12.7482735253        7.0941204337
 Se        12.7645439318       15.5928076275        9.9118243479
 Se        15.5937714088       12.7628880038        9.9091108995
 Se        15.5958580966       15.5963435322        7.0760365496
 Zn        11.3328047215       11.3300952422       11.3367756438
 Zn        11.3267322703       14.1706293307       14.1704300378
 Zn        14.1718461554       11.3263357241       14.1739700632
 Zn        14.1732528435       14.1711496131       11.3296391183
 Se        12.7552745340       12.7527053393       12.7531408405
 Se        12.7449716822       15.5841781262       15.5861944436
 Se        15.5925839059       12.7470367417       15.5830479897
 Se        15.5882221820       15.5717752575       12.7625081368
